# vtk DataFile Version 4.2
vtk output
ASCII
DATASET POLYDATA
POINTS 10100 float
2097 0 0 2096.96 0 65.9 2093.86 0 131.73 
2090.68 0 197.63 2084.43 0 263.33 2077.11 0 328.98 
2071.64 0 395.19 2066.99 0 462.03 2061.15 0 529.21 
2058.87 0 598.16 2057.14 0 668.4 2044.53 0 736.08 
2038.07 0 806.93 2033.74 0 880.08 2026.81 0 953.75 
2022.58 0 1030.56 2012 0 1106.11 2008.11 0 1187.59 
2002.75 0 1270.98 1998.23 0 1357.99 1986.95 0 1443.6 
1983.29 0 1538.4 1974.83 0 1633.72 1967.54 0 1734.62 
1920.83 0 1803.78 1809.49 0 1809.49 1690.83 0 1800.55 
1575.91 0 1787.52 1474.36 0 1782.2 1372.91 0 1769.95 
1281.37 0 1763.66 1191.05 0 1752.58 1109.16 0 1747.76 
1028.77 0 1739.56 952.43 0 1732.46 878.02 0 1723.21 
808.98 0 1719.17 736.71 0 1702.44 671.83 0 1696.84 
608.03 0 1688.88 547.58 0 1685.27 486.84 0 1675.71 
433.96 0 1690.18 380.66 0 1702.97 318.36 0 1668.91 
263.59 0 1664.26 209.68 0 1659.81 156.97 0 1660.6 
104.23 0 1656.72 52.02 0 1655.18 -0 0 1648 
-51.58 0 1641.19 -103.23 0 1640.76 -154.62 0 1635.71 
-206.05 0 1631.04 -257.65 0 1626.72 -310.49 0 1627.65 
-361.46 0 1617.09 -415.06 0 1616.57 -468.15 0 1611.37 
-522.55 0 1608.24 -578.57 0 1607.02 -633.91 0 1601.07 
-690.64 0 1595.97 -749.8 0 1593.4 -809.47 0 1588.66 
-847.41 0 1541.42 -874.03 0 1477.89 -875.54 0 1379.63 
-945.99 0 1391.98 -989.24 0 1361.57 -1031.52 0 1329.83 
-1072.79 0 1296.77 -1043.55 0 1183.67 -1035.04 0 1102.2 
-1025.31 0 1025.3 -1023.47 0 961.1 -1006.65 0 887.48 
-1010.14 0 835.66 -1001.92 0 777.17 -997.52 0 724.74 
-994.98 0 676.19 -989.55 0 627.99 -984.69 0 582.34 
-982.34 0 540.05 -978.33 0 498.48 -974.5 0 458.56 
-970.98 0 420.18 -969.76 0 383.95 -965.34 0 347.54 
-962.47 0 312.72 -958.37 0 278.43 -956.96 0 245.7 
-954.45 0 213.34 -949.87 0 181.2 -947.19 0 150.02 
-947.47 0 119.69 -943.79 0 89.21 -941.14 0 59.21 
-938.54 0 29.49 -936 0 -0 -933.54 -29.34 -0 
-932.08 -29.29 29.31 -933.69 -29.34 58.77 -934.37 -29.36 88.37 
-934.11 -29.36 118.06 -935.87 -29.41 148.3 -933.69 -29.34 178.2 
-934.47 -29.37 208.98 -927.45 -29.15 238.24 -930.07 -29.23 270.34 
-929.67 -29.22 302.22 -931.95 -29.29 335.69 -930.25 -29.23 368.49 
-931.06 -29.26 403.1 -929.7 -29.22 437.7 -929.75 -29.22 473.97 
-928.43 -29.18 510.66 -928.28 -29.17 549.25 -926.62 -29.12 588.34 
-927.53 -29.15 630.66 -928.29 -29.17 674.78 -931.92 -29.29 723.23 
-930.32 -29.24 770.01 -928.18 -29.17 818.7 -928.25 -29.17 872.11 
-926.56 -29.12 927.02 -925.05 -29.07 985.56 -924.72 -29.06 1049.4 
-925.08 -29.07 1118.78 -942.19 -29.61 1215.26 -942.93 -29.63 1298.47 
-942.71 -29.63 1387.84 -920.63 -28.93 1451.4 -861.38 -27.07 1457.24 
-804.13 -25.27 1463.43 -744.18 -23.39 1461.25 -729.85 -22.94 1551.78 
-705.38 -22.17 1630.85 -654.94 -20.58 1655 -595.55 -18.72 1655.01 
-537.43 -16.89 1654.84 -479.63 -15.07 1651.7 -422.57 -13.28 1646.59 
-367.39 -11.55 1644.42 -313.71 -9.86 1645.33 -260.65 -8.19 1646.48 
-208.2 -6.54 1648.89 -155.67 -4.89 1647.66 -103.49 -3.25 1645.75 
-51.68 -1.62 1645.19 -0 -0 1643 51.55 1.62 1641.19 
103.43 3.25 1644.75 155.2 4.88 1642.68 206.7 6.5 1636.99 
257.99 8.11 1629.69 311.84 9.8 1635.51 365.43 11.48 1635.64 
419.83 13.19 1635.94 474.05 14.9 1632.5 530.01 16.66 1632.01 
587.08 18.45 1631.49 647.21 20.34 1635.48 711.73 22.37 1645.53 
771.98 24.26 1641.36 837.2 26.31 1643.91 904.29 28.42 1645.7 
955.51 30.03 1616.47 1033.64 32.48 1629.55 1109 34.85 1632.66 
1183.22 37.18 1629.36 1265.03 39.76 1631.67 1346.85 42.33 1628.87 
1397.32 43.91 1585.73 1446.42 45.46 1541.04 1642.51 51.62 1643.32 
1749.39 54.98 1643.6 1863.86 58.57 1644.02 1975.39 62.08 1634.99 
2082.61 65.45 1616.24 2130.71 66.96 1548.81 2131.99 67 1449.61 
2130.03 66.94 1352.43 2123.26 66.73 1256.31 2124 66.75 1168.25 
2117.77 66.55 1079.59 2112.63 66.39 994.62 2107.96 66.25 912.65 
2109.55 66.3 835.64 2104.65 66.14 758.1 2113.16 66.41 686.94 
2112.56 66.39 614.06 2113.37 66.42 542.89 2110.84 66.34 472.06 
2110.88 66.34 402.87 2108.66 66.27 334.14 2109.19 66.28 266.58 
2109.55 66.3 199.51 2108.79 66.27 132.74 2105.92 66.18 66.21 
2104.96 66.15 -0 2102.84 132.3 -0 2114.77 133.05 66.59 
2109.65 132.73 132.99 2101.46 132.21 199.04 2096.16 131.88 265.33 
2092.72 131.66 332.11 2086.18 131.25 398.75 2079.47 130.83 465.74 
2074.48 130.52 533.69 2069.18 130.18 602.34 2061.62 129.71 671.18 
2056.46 129.38 741.84 2048.9 128.91 812.82 2044.39 128.62 886.43 
2037.26 128.17 960.56 2006.14 126.22 1024.2 2022.9 127.27 1114.3 
1986.97 125.01 1177.41 2012.28 126.6 1279.55 2007.49 126.3 1366.99 
1997.56 125.68 1454.18 1995.94 125.57 1551.27 1987.08 125.02 1647.1 
1975.64 124.3 1745.2 1919.95 120.79 1806.52 1802.39 113.4 1805.95 
1686.13 106.08 1799.09 1571.48 98.87 1786.01 1514.71 95.3 1834.59 
1370.81 86.24 1770.74 1278.84 80.46 1763.66 1188.7 74.79 1752.58 
1106.97 69.64 1747.76 1025.22 64.5 1736.98 951.03 59.83 1733.33 
896.22 56.39 1762.41 840.53 52.88 1789.75 784.01 49.33 1815.32 
673.81 42.39 1705.21 610.22 38.39 1698.29 549.58 34.58 1694.78 
489.22 30.78 1687.24 428.64 26.97 1672.74 373.38 23.49 1673.7 
317.92 20 1669.89 263.23 16.56 1665.24 209.27 13.17 1659.81 
156.29 9.83 1656.62 104.03 6.54 1656.72 51.82 3.26 1652.18 
-0 -0 1648 -51.51 -3.24 1642.19 -103.09 -6.49 1641.75 
-154.32 -9.71 1635.71 -205.77 -12.95 1632.03 -257.45 -16.2 1628.7 
-309.5 -19.47 1625.69 -361.62 -22.75 1621 -414.25 -26.06 1616.57 
-467.5 -29.41 1612.33 -523.06 -32.91 1612.99 -577.09 -36.31 1606.08 
-631.56 -39.73 1598.29 -689.67 -43.39 1596.89 -747.89 -47.05 1592.5 
-805.6 -50.68 1584.21 -858.72 -54.03 1565.08 -883.99 -55.62 1497.69 
-930.5 -58.54 1469.13 -976.1 -61.41 1439.12 -1020.73 -64.22 1407.69 
-1055.18 -66.39 1363.02 -1068.76 -67.24 1294.46 -1054.03 -66.31 1197.93 
-1045.97 -65.81 1116.05 -1035.28 -65.13 1037.32 -1029.46 -64.77 968.63 
-1023.38 -64.39 904.01 -1020.45 -64.2 845.86 -1014.13 -63.8 788.2 
-1009.28 -63.5 734.73 -1002.92 -63.1 682.93 -990.13 -62.29 629.6 
-987.04 -62.1 584.89 -985.65 -62.01 542.94 -983.51 -61.88 502.11 
-980.7 -61.7 462.4 -976.4 -61.43 423.36 -972.48 -61.18 385.79 
-970.01 -61.03 349.92 -969.11 -60.97 315.51 -964.15 -60.66 280.66 
-960.87 -60.45 247.2 -959.38 -60.36 214.87 -955.84 -60.14 182.7 
-952.22 -59.91 151.11 -949.56 -59.74 120.19 -947.89 -59.64 89.78 
-946.25 -59.53 59.65 -942.67 -59.31 29.68 -940.14 -59.15 -0 
-937.82 -88.65 -0 -939.35 -88.79 29.65 -937.96 -88.66 59.27 
-936.63 -88.54 88.93 -937.34 -88.6 118.94 -940.04 -88.86 149.55 
-937.83 -88.65 179.7 -941.47 -88.99 211.38 -937.28 -88.6 241.73 
-936.91 -88.56 273.41 -937.37 -88.61 305.93 -936.71 -88.54 338.74 
-936.76 -88.55 372.54 -937.44 -88.61 407.47 -935.04 -88.39 441.96 
-937.61 -88.63 479.87 -935.23 -88.41 516.44 -935.76 -88.46 555.87 
-934.73 -88.36 595.84 -943.63 -89.2 644.15 -943.16 -89.15 688.3 
-936.9 -88.56 729.97 -939.69 -88.83 780.84 -937.96 -88.66 830.61 
-935.47 -88.43 882.38 -944.02 -89.24 948.23 -945.25 -89.35 1011.08 
-941.48 -89 1072.66 -943.01 -89.14 1144.98 -947.01 -89.52 1226.32 
-946.23 -89.45 1308.18 -950.18 -89.82 1404.38 -922.87 -87.24 1460.69 
-853.42 -80.67 1449.49 -802.88 -75.89 1466.94 -760.68 -71.91 1499.56 
-738.84 -69.84 1577.11 -705.37 -66.68 1637.27 -648.69 -61.32 1645.7 
-589.82 -55.75 1645.6 -533.77 -50.46 1650.08 -476.62 -45.05 1647.86 
-421.64 -39.86 1649.5 -366.59 -34.65 1647.35 -312.84 -29.57 1647.3 
-259.93 -24.57 1648.45 -208.25 -19.69 1655.84 -156.37 -14.78 1661.59 
-103.08 -9.74 1645.75 -51.38 -4.86 1642.19 -0 -0 1643 
51.35 4.85 1641.19 103.02 9.74 1644.75 154.5 14.6 1641.68 
206.13 19.49 1638.97 257.28 24.32 1631.66 311.35 29.43 1639.44 
364.2 34.43 1636.61 418.17 39.53 1635.94 474.12 44.82 1639.22 
525.15 49.64 1623.45 586.45 55.44 1636.19 646.86 61.15 1641.06 
705.76 66.71 1638.19 765.54 72.37 1634.12 832.09 78.66 1640.34 
895.92 84.69 1636.94 962.89 91.02 1635.41 1033.29 97.67 1635.46 
1107.43 104.68 1636.79 1193.76 112.84 1650.39 1276.51 120.67 1653 
1361.21 128.67 1652.75 1457.65 137.79 1660.75 1550.43 146.56 1658.4 
1654.33 156.38 1661.7 1705.47 161.21 1608.69 1869.2 176.69 1655.26 
1983.7 187.52 1648.38 2083.04 196.91 1622.98 2131.16 201.45 1555.28 
2134.28 201.75 1456.92 2134.23 201.74 1360.46 2128.59 201.21 1264.46 
2118.23 200.23 1169.7 2125.38 200.91 1087.76 2122.31 200.62 1003.14 
2116.09 200.03 919.79 2117.89 200.2 842.27 2114.14 199.85 764.53 
2116.18 200.04 690.65 2136.73 201.98 623.54 2122.39 200.62 547.37 
2120.97 200.49 476.21 2121.13 200.51 406.43 2132.79 201.61 339.31 
2119.63 200.36 268.96 2119.07 200.31 201.2 2119.34 200.34 133.93 
2119.5 200.35 66.9 2118.56 200.26 -0 2112.21 266.83 -0 
2132.99 269.46 67.56 2123.89 268.31 134.69 2112.72 266.9 201.3 
2111.31 266.72 268.84 2105.81 266.03 336.18 2093.32 264.45 402.49 
2091.36 264.2 471.19 2082.37 263.06 538.91 2076.93 262.38 608.2 
2070.16 261.52 677.98 2064.82 260.85 749.29 2057.05 259.87 820.92 
2051.4 259.15 894.77 2044.94 258.34 969.93 2038.46 257.52 1046.9 
2030.91 256.56 1125.38 2039.24 257.62 1215.59 2033.03 256.83 1300.45 
2031.7 256.66 1391.72 2002.58 252.98 1466.52 1997.44 252.34 1561.69 
1989.07 251.28 1658.58 1936.4 244.62 1720.73 1921.6 242.75 1818.84 
1785.4 225.55 1799.59 1663.92 210.2 1785.97 1549.05 195.69 1771.01 
1450.72 183.27 1767.56 1366.95 172.69 1776.27 1275.93 161.19 1770.13 
1186.12 149.84 1759.2 1104.14 139.48 1753.67 1023.19 129.26 1743.86 
947.78 119.73 1737.72 873.35 110.33 1727.66 803.02 101.45 1720.08 
734.05 92.73 1709.78 671.28 84.8 1708.93 607.61 76.76 1701.11 
546.94 69.09 1696.68 486.88 61.51 1689.16 428.81 54.17 1683.4 
370.95 46.86 1672.72 315.66 39.88 1667.92 261.67 33.06 1665.24 
208.28 26.31 1661.79 155.36 19.63 1656.62 103.47 13.07 1657.72 
51.51 6.51 1652.18 -0 -0 1651 -51.23 -6.47 1643.19 
-102.41 -12.94 1640.76 -153.31 -19.37 1634.71 -204.67 -25.86 1633.02 
-256.39 -32.39 1631.66 -307.11 -38.8 1622.74 -357.53 -45.17 1612.21 
-412.28 -52.08 1618.5 -462.52 -58.43 1604.65 -512.3 -64.72 1589.22 
-572.99 -72.39 1604.2 -628.91 -79.45 1601.07 -685.2 -86.56 1595.97 
-740.51 -93.55 1586.16 -803.53 -101.51 1589.56 -857.93 -108.38 1572.97 
[...]
POINT_DATA 10100
SCALARS scalars double
LOOKUP_TABLE default
2097 2097.9952458 2097.9996407 2100.0001141 2100.9976473 2103.0011394 2108.9967818 2117.9989096 2128.0043577 
2144.0011806 2163.003361 2172.9971669 2192.0003079 2215.996208 2239.9995175 2269.9964251 2296.0015967 2332.9971668 
2372.0028927 2416.0008222 2456.0031072 2510.0027458 2563.0049878 2622.9983218 2634.9971873 2559.005299 2469.9972452 
2383.0065209 2313.0011348 2240.0010872 2180.001301 2118.9942801 2070.000223 2020.9989378 1977.0029227 1934.0040911 
1899.9984551 1855.0050075 1824.9990505 1794.9975307 1771.998541 1744.9977621 1745.0013507 1744.9953743 1699.0037309 
1685.0047584 1673.0017748 1668.0023804 1659.9954974 1655.9972563 1648 1642.0003388 1644.0042003 1643.0016885 
1644.0036752 1646.9977173 1656.999868 1656.9952926 1669.0037054 1677.9981226 1691.0039622 1707.9978119 1721.9950735 
1738.9950691 1761.0007382 1782.9981146 1758.9995237 1716.9995029 1633.9979279 1683.0048724 1682.993952 1682.9977241 
1683.0005398 1577.9959669 1512.0028577 1450.0002366 1403.9957446 1342.0003625 1310.9959783 1268.0050849 1233.002116 
1203.0037891 1171.9985677 1143.9992446 1121.0021758 1098.0035971 1076.9993146 1057.9949871 1043.001467 1025.9948183 
1011.9991597 997.9961532 987.99844716 978.00243256 966.99868506 958.99681777 955.00005079 947.99682921 943.00070186 
939.00319046 936 934.00094604 933.00059303 935.9977375 938.99870256 941.99876077 948.00342563 950.9958421 
958.00282787 958.00392619 969.00377368 977.99644463 990.99772083 1001.0016661 1014.9967888 1027.996687 1044.0002068 
1060.0034778 1078.9949999 1098.0057169 1122.0043044 1147.9988072 1179.997637 1208.0006954 1237.9978559 1273.9995304 
1311.0024746 1351.9952223 1398.9967555 1451.9940632 1538.0037763 1604.9982127 1677.9987922 1718.9992734 1693.0022761 
1669.9973038 1640.0007704 1715.0010013 1776.9986426 1779.9985787 1759.0020867 1740.0033628 1719.9956197 1700.0001151 
1685.0002822 1674.9991023 1667.0038659 1661.9952598 1655.0046938 1649.0038827 1646.0023034 1643 1642.0001958 
1648.0020904 1650.0025566 1650.0010303 1650.0042752 1665.0024582 1676.0039036 1689.0029274 1700.000489 1715.9967354 
1734.0020037 1759.0023678 1792.9944202 1814.0022926 1845.0030201 1877.9980273 1877.9979824 1929.9999488 1973.9995436 
2014.0024653 2065.0009074 2114.0043113 2113.9940642 2114.0013504 2324.0060987 2401.0016936 2486.0020726 2564.9974422 
2637.0020577 2634.9992717 2578.9997116 2523.9999345 2467.995287 2425.0030155 2378.0019435 2335.9970234 2298.002273 
2269.9980401 2237.9994933 2223.0029324 2200.9968354 2182.9965473 2163.997954 2150.0045597 2135.9981854 2127.0026777 
2120.0002671 2114.0025744 2107.9996686 2105.999151 2106.9977113 2119.997331 2118.0006411 2115.0013091 2116.9976592 
2122.9951498 2127.9979129 2135.000168 2146.0027393 2158.9965679 2172.0000693 2189.9985163 2208.0048348 2232.0017297 
2255.9989739 2255.9953076 2313.0037944 2313.0005597 2388.0005362 2432.0011205 2474.000988 2531.0043306 2583.9998717 
2639.0011254 2638.9984344 2554.0016982 2467.9976036 2380.9990314 2380.9974679 2240.9992283 2180.0004938 2118.9945471 
2069.9993546 2018.0029283 1977.9966074 1977.9987686 1978.0020318 1978.0019796 1834.0005377 1805.0017076 1781.99697 
1757.0038231 1726.997029 1715.0032345 1700.0016878 1685.9977829 1673.0022767 1664.0051134 1659.9958346 1652.9956722 
1648 1643.0008441 1644.9962707 1643.0021761 1645.0017983 1649.0017079 1655.0037181 1661.0019828 1669.005917 
1678.996494 1695.9986945 1706.9986088 1719.0047791 1739.9957107 1760.0026718 1777.9991976 1785.9996321 1740.0020806 
1740.0000398 1740.0025208 1740.001459 1725.003184 1679.9987639 1597.0011089 1530.9969953 1466.9967204 1415.0007496 
1366.9991868 1326.9962254 1285.9974094 1250.0026165 1214.9993915 1175.0036685 1148.9998624 1127.0026647 1105.9997769 
1085.9986832 1066.0038905 1047.9953563 1032.9995486 1020.9985764 1005.9994501 993.99859125 984.99869589 975.00062318 
965.99501479 958.99879943 953.99833863 949.99526625 945.00016265 941.9989077 942.00062362 944.00275905 944.00343755 
944.99927693 949.00103224 956.00026344 958.99740427 969.00283044 971.996477 979.99808663 990.00374439 1000.0048716 
1012.0012113 1026.000627 1037.9986683 1056.9971646 1071.9989527 1091.9997281 1112.0040324 1146.0032458 1171.0061478 
1190.9998675 1224.9976207 1256.0025992 1288.9990109 1340.9987587 1386.9981079 1430.0017713 1485.9989906 1551.9995209 
1616.9995139 1697.9967165 1730.004373 1683.9995859 1674.0037485 1682.998902 1742.9968799 1783.9972288 1769.9964261 
1748.9983004 1734.9987409 1715.9949611 1703.0030415 1688.0020359 1677.0034408 1668.9981103 1669.0002589 1668.9971101 
1649.0037649 1643.0007669 1643 1642.0002927 1648.0019874 1648.9986757 1651.9963977 1651.9984311 1669.0022352 
1676.9971249 1689.0022065 1706.9976026 1706.9963546 1738.9982496 1765.0056957 1784.9968845 1806.0002998 1840.9987722 
1867.9982886 1900.0020159 1936.9969191 1978.9999018 2039.9958224 2091.9961828 2145.0014442 2214.0054582 2274.995292 
2350.0019879 2350.0000215 2503.0009316 2585.998079 2647.997974 2646.0009309 2592.0011704 2538.9935274 2483.9967681 
2428.0009217 2396.0022517 2356.0004202 2316.0014104 2288.002807 2256.9966954 2235.0013907 2234.9973479 2201.0001393 
2182.9993003 2169.0048598 2169.0023173 2145.9997549 2138.0044904 2132.9968111 2129.9990569 2128.0038866 2128.99726 
2151.0042737 2145.0035861 2139.0051656 2145.0045268 2149.0055164 2148.0038699 2160.0019226 2167.000085 2179.997415 
2193.9945343 2212.0035848 2229.9992748 2253.0011175 2277.9998604 2305.9998552 2336.0005578 2387.9964175 2427.0028497 
2475.9975372 2494.996282 2548.0026855 2602.0047501 2601.998393 2657.0007655 2545.0049372 2450.0005403 2361.0012492 
2294.0019104 2248.001168 2187.9990397 2126.9972543 2077.0022337 2025.9994135 1983.0010085 1939.0002597 1901.001954 
1863.0018529 1838.0015297 1807.998131 1783.9954636 1759.0045822 1738.0011407 1713.9988216 1697.9955172 1685.9977491 
1674.9981429 1664.0047749 1660.9974305 1652.9955876 1651 1644.0011405 1644.003841 1641.9975448 1645.9990489 
1651.9985774 1652.0009382 1651.9954945 1670.9965215 1670.9998318 1671.0057381 1704.9972118 1721.9945515 1738.9973877 
1753.0003446 1784.0027283 1794.9999248 1750.0022436 1661.9961117 1671.0014921 1703.9968517 1726.0046454 1700.0002292 
1622.0002133 1541.0000015 1476.0005026 1425.0004964 1375.9933471 1333.0061924 1301.0019869 1266.9962048 1230.0004893 
1196.996587 1168.000107 1147.0014844 1120.9969608 1094.998222 1075.0011923 1058.9996462 1042.9977901 1034.0004848 
1018.9959991 1007.9974981 994.99880246 984.99690568 977.99766902 971.99770828 966.00008587 959.99905588 955.99649508 
953.00433037 949.99569583 955.00292712 958.99553138 956.00106412 962.99575144 967.99825134 969.00180046 968.99852926 
986.99909954 992.99879124 1004.0034519 1016.0045798 1026.9951716 1039.9949044 1055.9951412 1075.0008134 1094.9983882 
1109.0014725 1129.000601 1153.9976671 1181.0013065 1208.0025795 1239.9997293 1275.0002923 1318.9999255 1348.9998221 
1393.998354 1447.0019273 1500.9969955 1566.9967985 1632.9981379 1723.0020766 1726.996329 1687.9964644 1674.0039875 
1668.999297 1771.9961737 1785.998891 1771.9976635 1749.000048 1730.0028631 1718.9948489 1703.0039837 1688.0018361 
1679.9985372 1668.9989223 1658.0033361 1652.0013541 1643.0024246 1644.0011139 1644 1646.0020376 1643.0018044 
1650.0030131 1653.0037367 1663.0046883 1665.0020417 1676.0039791 1690.996863 1711.9967586 1724.9972571 1725.0010856 
1760.0020219 1792.0044359 1814.0011699 1853.0056216 1882.0014939 1927.0020881 1949.0047403 1992.998291 2041.997475 
2085.9957709 2144.9987618 2209.0022823 2272.0003693 2272.0043305 2272.002289 2470.996176 2564.0006094 2662.0033068 
2676.001606 2616.9977175 2567.0044658 2515.9972839 2473.9999689 2430.0015247 2391.9988457 2354.0048245 2324.0012114 
2296.0031838 2273.0040758 2246.0029219 2225.9973147 2211.9991215 2198.0030305 2179.0030996 2178.9971001 2166.998112 
2160.9975985 2159.0039105 2159.0005475 2146.9997198 2147.0001143 2174.0010239 2183.994634 2175.0018236 2178.9985126 
2188.0046265 2191.0008628 2201.0004829 2213.9998629 2237.0009918 2237.0015401 2263.9999628 2288.9990772 2312.9963508 
2312.9959246 2371.0007408 2407.0001139 2446.0019092 2505.0009797 2549.9975078 2607.9963726 2652.0040718 2676.9992103 
2674.9963552 2571.9980751 2481.9992041 2398.0044919 2321.0013024 2238.0028351 2176.997687 2118.9979638 2067.005055 
2018.0024338 1971.0011475 1926.0019008 1908.0014311 1871.0005029 1870.9978272 1871.0011738 1785.002457 1760.0038873 
1739.0035407 1713.004351 1697.996738 1683.0010552 1672.0035978 1664.004583 1655.9977364 1652.9955914 1648 
1643.0006029 1640.9979152 1645.000959 1645.0010785 1649.0018004 1652.0011115 1663.0012945 1666.0009861 1678.9970872 
1692.0034093 1704.0008431 1719.0051485 1738.9960659 1758.0030749 1779.9985563 1799.0021381 1778.0030457 1696.9956631 
1659.0029145 1704.9954303 1727.0006321 1736.0006669 1651.9996114 1584.9970184 1518.996921 1454.0017412 1395.0002524 
1356.9995695 1326.999503 1288.99632 1242.9991798 1220.0056025 1191.0040895 1168.0036816 1142.9977346 1120.0017056 
1101.0002024 1082.0009779 1065.995392 1051.0054224 1037.0031399 1024.9979576 1011.995256 1002.9957249 993.9959349 
986.99755167 981.00360091 974.00040436 971.0002052 967.99692902 965.00070347 975.99485449 977.00199319 972.99722687 
982.99727629 984.99828152 989.00365869 998.00108006 1002.99803 1014.9963868 1025.0024877 1031.9958394 1045.0025679 
1059.0033175 1074.0011772 1092.004232 1114.0016523 1137.9974567 1156.9982291 1185.0032932 1202.9983301 1248.0046623 
1278.0009284 1316.0006674 1335.0024302 1380.9990226 1381.0010936 1508.0018796 1539.0004514 1615.0022585 1670.0006413 
1745.0012302 1733.0032274 1693.0025163 1692.0004699 1743.9949319 1785.0021464 1797.9994554 1798.0029205 1757.0025938 
1757.0044595 1717.9948369 1703.0031076 1686.9996378 1682.0035834 1667.0042329 1656.9964144 1652.001288 1649.0040852 
1645.0018097 1643 1644.001315 1644.0039768 1648.0033275 1650.0007529 1659.0041595 1658.9955915 1659.0033506 
1688.001679 1703.9994021 1719.0046595 1741.9956588 1763.0028625 1793.9963437 1814.9998888 1856.000166 1881.9981363 
1907.0025015 1945.0003284 1982.9999099 2027.0032035 2075.9970004 2126.0012129 2184.9999984 2251.0042745 2317.9975469 
2414.9975811 2477.0026213 2565.9993409 2675.9982891 2709.0036003 2669.9974878 2614.9980828 2558.9995658 2514.0021905 
2472.9983824 2434.0024206 2397.9954856 2398.0002758 2336.9965227 2313.0052285 2285.9950611 2269.999183 2252.0053593 
2238.005268 2219.9987028 2212.9949892 2213.0011781 2202.0006722 2202.0007877 2119.0032995 2077.0029618 1578.0003268 
1829.9995432 2208.9956068 2221.9984837 2224.9953953 2224.9938053 2242.0040223 2244.9966752 2262.9999028 2278.996058 
2298.0026969 2310.0029632 2333.9950988 2365.0048561 2395.9991637 2430.003955 2454.9978703 2491.9981275 2537.002076 
2582.0016215 2646.9954246 2691.0021135 2726.0011026 2650.9945472 2536.0018064 2473.9986135 2374.9965585 2304.9958835 
2254.9986299 2194.99576 2124.0016992 2081.0005269 2025.9987306 1988.0035443 1944.0024418 1907.0039558 1872.0015394 
1840.0015412 1809.9952798 1783.9964667 1750.997153 1729.0004967 1728.9999746 1728.9946853 1728.9970712 1675.9959181 
1675.9980176 1675.997145 1653.9961128 1652 1644.0012902 1644.9963651 1643.9959315 1645.9994055 1648.0003096 
1653.9968115 1656.9964672 1664.998793 1665.0018341 1690.0041264 1704.0010788 1719.0053595 1738.0034617 1756.9980074 
1775.0043386 1804.0022408 1779.0028981 1723.0056011 1676.0050973 1704.9974387 1735.0043626 1735.0016434 1699.0010132 
1621.002104 1553.9957854 1554.0041813 1425.9966702 1379.0038663 1356.0000832 1316.9963527 1280.9962339 1248.9976441 
1218.9995047 1194.0001766 1167.9992653 1145.0027875 1123.0021566 1106.0025715 1087.0030413 1071.9998439 1056.9982387 
1043.9985882 1030.9981823 1022.0011425 1012.9953413 1005.9983075 998.00360926 993.00416021 989.0029141 984.99583964 
985.0017402 991.99805927 1000.0009888 993.00075237 1007.9974031 1008.0001605 1007.9989489 1007.9964931 1025.0026599 
1035.9974055 1043.9999342 1058.9979073 1069.0024608 1081.9966091 1100.0008164 1117.0049815 1133.9964138 1160.9992978 
1177.0041945 1214.0027009 1239.9993385 1275.9971744 1295.0007243 1331.0052266 1367.9981421 1408.0072483 1458.9972355 
1514.0000524 1573.0055078 1638.99795 1712.001762 1758.9978218 1730.9998642 1690.9954094 1669.0028491 1770.9961223 
1802.9983007 1800.0008182 1777.999101 1755.0042953 1735.9955911 1708.9969572 1702.0006288 1686.9993675 1680.9951021 
1667.0030382 1659.0014814 1654.0010855 1654.0035917 1643.0007759 1641 1643.0007759 1646.9999578 1650.9969508 
1654.0024341 1664.9988568 1670.9979629 1681.004398 1697.9962246 1702.0007541 1715.9976376 1741.9957059 1760.0020951 
1788.0022608 1823.0017819 1847.0026672 1867.9978 1907.0057689 1940.9974134 1981.9945573 2029.0027034 2076.9979296 
2127.9981306 2192.9959145 2252.0021869 2322.000715 2322.0044487 2530.0018836 2529.9934866 2678.0077832 2733.9993616 
2714.9999565 2670.9946108 2595.9962439 2564.0046296 2521.0022856 2485.996428 2448.0040073 2420.0025869 2388.0001436 
2359.0005336 2336.0048487 2317.9998699 2302.0029347 2286.9985217 2272.9967859 2263.0017679 2256.0019956 2251.9963851 
2219.0009473 2051.9975318 1804.0048794 1471.9963681 1471.998995 2042.0008194 2041.9973737 2287.0026711 2277.0030957 
2297.9965484 2300.0028157 2311.9966281 2333.002112 2345.0001919 2368.0003585 2389.9997563 2415.9998734 2461.9961935 
2461.9975263 2462.000657 2553.0043983 2619.9973306 2670.9949603 2699.9987537 2752.9980438 2762.0002875 2638.9976619 
2550.9970734 2451.0015921 2374.9950927 2302.9984448 2258.9983905 2194.9968113 2115.0024757 2071.99973 2029.0023991 
1981.9987889 1936.9999994 1908.0014902 1872.9949879 1841.0027121 1811.0049347 1777.0034214 1750.9949864 1736.0006681 
1712.0002025 1696.0002781 1681.9975737 1682.0025705 1664.0046759 1655.9975912 1654.996589 1650 1647.0026825 
1644.9963667 1645.000495 1645.0009883 1648.0003911 1655.0048243 1659.9993284 1669.0047199 1677.9992084 1690.0046364 
1704.997859 1721.0067642 1738.99601 1762.9996806 1781.9990767 1801.9947654 1794.0017251 1793.99885 1793.9964439 
1691.0038483 1743.9973065 1743.9961327 1742.9959071 1664.0007679 1591.9999138 1535.9953658 1477.0013823 1428.9987564 
1387.9991555 1347.0019722 1310.0025983 1278.0042192 1247.9981321 1220.0015891 1195.0014481 1161.9972354 1149.0000148 
1149.0023493 1148.9996408 1097.9982917 1083.004403 1070.0006136 1056.0006241 1047.9952536 1036.9979356 1031.0012953 
1022.9965412 1018.0050888 1014.004738 1011.0029509 1008.002793 1024.0043436 1029.0026125 1018.0020997 1028.0021089 
1030.0027132 1039.9979852 1046.0020306 1051.0008781 1064.9972309 1070.9967844 1084.9959405 1084.9998135 1111.0043148 
1125.9995112 1149.999862 1167.0002435 1187.0003669 1220.9991 1248.995985 1271.9983477 1307.0027529 1344.0038827 
1375.9948457 1418.0044088 1448.0000934 1498.9957063 1587.0060481 1619.9996523 1685.9993459 1761.0021853 1760.999949 
1723.9965125 1694.0043139 1701.0028974 1791.9989873 1818.0068043 1803.0010124 1779.9966719 1757.0028336 1736.9950298 
1737.0008947 1703.0024463 1686.9983269 1679.9978165 1670.0001299 1659.002122 1652.9964454 1649.0038277 1644.0012969 
1643 1644.0012969 1644.9958404 1648.0035569 1651.9967363 1658.0021196 1668.0038349 1678.9962152 1690.995236 
1704.0011054 1715.9956733 1744.0022394 1761.0022281 1783.0032891 1806.9987257 1835.0013593 1866.0030097 1898.0013003 
1956.0054026 2002.0016989 2023.9974007 2075.0012012 2124.000546 2185.9960634 2244.9956302 2341.000096 2403.0007658 
2474.0006298 2562.0003171 2669.0031439 2769.0007906 2792.0025072 2746.0030723 2669.9957277 2670.0032975 2597.0022131 
2556.9997529 2556.9993602 2485.9976668 2486.0015999 2428.9944508 2402.0008915 2384.0007456 2361.000546 2348.0027294 
2334.0009488 2325.9971796 2317.9975026 2289.0032729 2219.9965604 2005.0039775 2055.0008579 1643.0009464 2101.9965732 
2097.997284 2314.0009564 2347.0001379 2354.0058843 2357.9963896 2375.9949941 2383.9937027 2405.0025998 2424.0028214 
2445.9998254 2446.0013935 2485.0022689 2517.9982626 2547.9991371 2590.0011618 2632.0048828 2681.0029834 2744.9967361 
2791.9995788 2800.0000059 2784.9977689 2679.0000916 2573.9980588 2475.0043249 2395.9994386 2303.9970958 2238.0013604 
2175.9975924 2111.0002164 2081.0019451 2027.9953557 1983.0033166 1935.9986939 1901.9980169 1862.0002636 1833.0005702 
1807.0000587 1783.9943024 1754.005396 1738.0020279 1718.0042261 1701.9974217 1685.9977695 1674.997713 1663.0001974 
1655.9978363 1653.9960578 1652 1646.0021269 1640.9979106 1641.0030618 1642.9955841 1647.9993762 1652.9989228 
1659.0045181 1670.9980954 1671.0004843 1671.0056938 1702.9997656 1729.9955117 1743.9968849 1756.0062759 1787.9994686 
1804.9965249 1815.0020428 1809.0001102 1727.0021372 1691.0046821 1728.0015739 1767.0005546 1752.9960177 1715.0022794 
1632.9987755 1583.998525 1510.0001506 1475.0026286 1475.004845 1392.9954273 1353.0040887 1318.0025442 1285.9983902 
1260.9972485 1231.9988918 1206.9953333 1182.9986599 1161.9984238 1141.0033635 1131.0006645 1112.9980393 1101.9983325 
1090.0008986 1078.999904 1068.9963851 1062.0043675 1054.0039393 1048.9990682 1042.9998435 1038.0006571 1036.9976421 
765.99900196 1063.0038949 1051.000794 1062.9999402 1068.9977246 1072.0019986 1082.9980264 1096.0009403 1100.0053659 
1107.001281 1123.000882 1134.9973544 1148.9959875 1166.0021266 1183.9997835 1213.0033846 1237.9997729 1237.9991177 
1237.9984839 1238.0021855 1338.0049692 1373.0011956 1416.0007081 1460.9972759 1501.0054076 1546.9993505 1609.0036372 
1609.0011894 1608.9995574 1608.9993305 1608.9983423 1608.9981628 1697.0017464 1755.0011448 1822.9972572 1825.9961276 
1803.0001601 1779.9988018 1757.0016898 1736.9956343 1716.9965031 1703.0036424 1686.9980163 1675.9967057 1663.0051596 
1422.0032973 566.9962499 508.00222618 488.00089201 497 545.99941081 742.99640255 1285.9971977 1641.0000986 
1658.0033504 1664.0041272 1674.9994458 1685.9995929 1700.0012994 1714.9984982 1735.9991333 1764.00316 1791.0011374 
1818.9983526 1850.0002755 1865.0010728 1899.0026855 1942.9993365 1985.0030052 2029.0052965 2082.9947997 2134.0062707 
2190.999504 2252.0006757 2352.001627 2399.9949578 2497.0035057 2571.0015011 2570.9985407 2570.9994072 2841.9990432 
2818.0012034 2759.9950508 2713.9998891 2666.9965211 2612.999352 2571.9989703 2555.0033122 2521.9989908 2496.9981908 
2470.0063471 2452.0031562 2431.0024997 2416.9963149 2402.9985211 2394.9997858 2387.0002806 2385.0048611 2321.9948757 
2127.9980257 2129.998579 2006.0015534 2180.0003643 2156.0024398 2362.0010207 2416.0032213 2423.999225 2448.9946222 
2448.9942451 2465.0001149 2473.0018987 2492.0007733 2515.002804 2540.0011646 2562.0023409 2595.9979708 2624.9989335 
2665.0021069 2717.9982188 2770.0003471 2816.9977026 2858.9981378 2875.9984357 2798.9992301 2691.0032049 2582.0027381 
2450.9966818 2377.9964043 2316.0003622 2253.0021621 2192.0015541 2129.9973953 2084.9959702 2023.9968724 1976.0003596 
1943.0031065 1907.003351 1868.0047555 1836.9988621 1805.9993758 1786.0035478 1760.0026941 1739.0035516 1718.0045261 
1703.0047299 1688.0019485 1675.996255 1666.0036883 1655.9973829 1655.9972946 1650 1646.0021095 1644.9960713 
1645.9948798 1649.0035598 1649.0016819 1656.002046 1666.0029975 1671.9996352 1682.9971761 1698.994273 1710.0026424 
1716.0037317 1716.0044779 1765.0004197 1778.9982779 1804.9979021 1829.0045411 1834.995586 1786.9987105 1728.0005419 
1741.0037741 1778.9946325 1803.0031785 1801.9966234 1802.0045973 1640.9990605 1591.0065696 1526.0007703 1526.0046823 
1430.9999964 1380.9986459 1347.9947452 1336.0042677 1304.0021389 1279.000614 1247.9967065 1227.9971417 1205.0013744 
1181.0046663 1167.9970881 1168.0024433 1143.9986076 1130.9972697 1120.0056667 1108.0062521 1099.997411 1089.9963084 
1077.0037123 1072.0034902 1067.0010678 1056.9974555 674.99650444 1087.9990473 1072.0005836 1108.9974613 1102.0003138 
1084.9995037 1100.9984296 1120.005405 1156.0004555 1170.0034457 1185.9981177 1194.9982196 1214.004057 1240.004116 
1240.0030869 1240.0029901 1239.9986882 1239.993006 1239.9979518 1368.0020697 1389.0011418 1422.9991001 1476.001592 