# vtk DataFile Version 4.2
vtk output
ASCII
DATASET POLYDATA
POINTS 10100 float
1841 0 0 1840.09 0 57.8272 1842.36 0 115.911 
1840.79 0 174.006 1839.38 0 232.368 1841.05 0 291.594 
1838.84 0 350.778 1842.53 0 411.854 1838.37 0 472.013 
1838.96 0 534.268 1836.49 0 596.712 1839.42 0 662.233 
1834.45 0 726.31 1844.69 0 798.267 1838.61 0 865.184 
1837.26 0 936.129 1837.61 0 1010.24 1843.71 0 1090.37 
1838.95 0 1167.03 1843.56 0 1252.88 1838.09 0 1335.45 
1846.59 0 1432.36 1838.44 0 1520.89 1831.77 0 1614.92 
1779.41 0 1670.98 1675.14 0 1675.14 1575.83 0 1678.09 
1470.1 0 1667.5 1384.48 0 1673.56 1288.94 0 1661.7 
1213.78 0 1670.62 1126.98 0 1658.3 1056.65 0 1665.02 
977.868 0 1653.49 912.923 0 1660.6 840.336 0 1649.25 
780.027 0 1657.64 713.277 0 1648.29 654.893 0 1654.07 
592.791 0 1646.54 536.144 0 1650.08 477.353 0 1643.06 
422.523 0 1645.62 366.48 0 1639.54 313.301 0 1642.38 
259.368 0 1637.59 207.05 0 1638.97 154.807 0 1637.7 
103.101 0 1638.76 51.3872 0 1635.19 -0.000852067 -0 1637 
-51.3889 -0 1635.19 -102.915 -0 1635.77 -154.527 -0 1634.71 
-206.425 -0 1634.01 -258.9 -0 1634.62 -311.616 -0 1633.54 
-365.173 -0 1633.68 -419.043 -0 1632.06 -474.844 -0 1634.42 
-531.819 -0 1636.77 -588.728 -0 1635.25 -648.268 -0 1637.34 
-706.527 -0 1632.68 -769.384 -0 1635.02 -831.258 -0 1631.43 
-897.508 -0 1632.56 -963.107 -0 1628.52 -1010.03 -0 1591.56 
-1023.55 -0 1506.11 -1048.61 -0 1443.29 -1124.69 -0 1449.93 
-1188.8 -0 1437.01 -1206.23 -0 1368.2 -1219.86 -0 1299.02 
-1197.84 -0 1197.84 -1234.87 -0 1159.62 -1210.68 -0 1067.36 
-1243.61 -0 1028.8 -1205.78 -0 935.295 -1206.24 -0 876.387 
-1203.4 -0 817.83 -1208.23 -0 766.767 -1202.46 -0 711.13 
-1202.29 -0 660.965 -1199.3 -0 611.07 -1201.61 -0 565.434 
-1195.83 -0 517.483 -1193.83 -0 472.671 -1197.74 -0 431.212 
-1192.63 -0 387.506 -1198.45 -0 348.18 -1195.23 -0 306.882 
-1196.47 -0 267.442 -1193.48 -0 227.667 -1194.12 -0 189.128 
-1195.5 -0 151.025 -1194.67 -0 112.929 -1193.64 -0 75.0963 
-1193.41 -0 37.5032 -1194 -0 -0.00124309 -1192.41 -37.473 -0.00124204 
-1189.82 -37.3918 37.409 -1190.06 -37.3991 74.9079 -1192.09 -37.4631 112.741 
-1191.93 -37.458 150.649 -1190.56 -37.415 188.659 -1191.91 -37.4572 227.48 
-1192.96 -37.4902 266.788 -1190.77 -37.4214 305.887 -1196.9 -37.614 347.901 
-1192.99 -37.4911 387.815 -1199.03 -37.6811 431.89 -1202.54 -37.7913 476.352 
-1195.24 -37.5621 517.483 -1178.41 -37.033 554.789 -1196.92 -37.6148 610.162 
-1208.71 -37.9851 664.819 -1206.17 -37.9053 713.675 -1200.89 -37.7394 762.481 
-1212.73 -38.1115 824.575 -1201.61 -37.762 873.448 -1215.45 -38.197 943.263 
-1206.03 -37.901 998.205 -1219.83 -38.3347 1075.95 -1208.03 -37.964 1134.98 
-1229.05 -38.6245 1229.66 -1239.79 -38.9619 1320.89 -1223.49 -38.4496 1388.45 
-1179.29 -37.0607 1426.22 -1111.27 -34.9229 1433.34 -1065.72 -33.4915 1467.56 
-1026.98 -32.2742 1511.9 -1008.47 -31.6923 1589.87 -962.632 -30.2519 1628.52 
-898.51 -28.2368 1635.19 -831.301 -26.1247 1632.32 -769.856 -24.1937 1636.83 
-705.781 -22.1801 1631.77 -647.212 -20.3395 1635.48 -586.744 -18.4392 1630.55 
-530.939 -16.6854 1634.87 -473.773 -14.8889 1631.54 -419.582 -13.1859 1634.97 
-364.774 -11.4635 1632.71 -313.335 -9.84695 1643.37 -258.616 -8.12733 1633.64 
-206.573 -6.49183 1636 -154.45 -4.8538 1634.71 -102.801 -3.23065 1634.77 
-51.3319 -1.61317 1634.19 -0.00065581 -2.06097e-05 1635 51.362 1.61412 1635.19 
102.8 3.2306 1634.77 154.731 4.86262 1637.7 206.071 6.47604 1632.03 
259.083 8.14202 1636.6 312.585 9.82337 1639.44 367.171 11.5388 1643.44 
421.818 13.2562 1643.69 478.512 15.0378 1647.86 534.335 16.7922 1645.33 
594.868 18.6945 1653.13 653.834 20.5476 1652.21 716.895 22.5293 1657.46 
780.068 24.5146 1658.55 843.552 26.5097 1656.38 912.472 28.6756 1660.6 
980.438 30.8115 1658.65 1058.27 33.2575 1668.39 1128.11 35.4522 1660.78 
1217.29 38.2549 1676.28 1311.59 41.2183 1691.72 1380.62 43.3876 1669.7 
1432.36 45.0136 1625.49 1573 49.4334 1675.9 1624.84 51.0625 1625.64 
1775.62 55.8011 1668.24 1826.37 57.396 1610.96 1832.92 57.6017 1517.07 
1835.41 57.6802 1424.4 1831.52 57.5578 1331.33 1836.04 57.6999 1248.39 
1829.6 57.4975 1161.67 1834.2 57.6419 1085.28 1834.08 57.6383 1008.79 
1830.11 57.5137 932.95 1833.18 57.61 863.055 1828.18 57.4529 791.516 
1833.54 57.6214 726.31 1828.17 57.4525 658.506 1833.68 57.6258 596.094 
1829.42 57.4917 531.757 1833.59 57.6229 471.018 1828.94 57.4768 409.018 
1834.01 57.636 350.028 1829.28 57.4875 289.873 1832.52 57.5894 231.616 
1831.93 57.5706 173.253 1834.47 57.6504 115.472 1834.19 57.6417 57.6699 
1835.09 57.6702 -0.000218851 1831.38 115.221 -0.000218732 1827.48 114.975 57.5443 
1826.77 114.931 115.158 1830.21 115.147 173.347 1826.84 114.935 231.24 
1827.56 114.98 290.029 1827.37 114.968 349.279 1833.05 115.326 410.545 
1827.01 114.946 470.024 1833.42 115.349 533.71 1828.12 115.016 595.167 
1833.91 115.38 661.555 1826.19 114.894 724.469 1835.55 115.483 795.884 
1827.76 114.993 861.777 1835.41 115.474 937.036 1833.11 115.33 1009.76 
1828.04 115.011 1083.24 1837.85 115.627 1168.64 1827.54 114.979 1244.45 
1841.73 115.872 1340.74 1828.75 115.055 1421.33 1844.04 116.017 1528.54 
1822.17 114.641 1609.63 1754.8 110.403 1651.13 1670.42 105.094 1673.72 
1558.37 98.0444 1662.78 1471.16 92.5572 1672 1372.21 86.3321 1662 
1293.13 81.3568 1670.39 1201.41 75.5862 1656.87 1129.24 71.0458 1664.91 
1047.08 65.8766 1653.19 970.858 61.0812 1644.88 908.237 57.1414 1655.34 
835.053 52.5371 1642.13 776.363 48.8446 1653.12 724.157 45.5601 1676.74 
651.764 41.0055 1649.42 599.735 37.7321 1669.12 533.852 33.5871 1646.28 
477.525 30.0433 1646.9 420.449 26.4524 1640.78 366.41 23.0526 1642.47 
312.496 19.6606 1641.4 259.324 16.3153 1640.55 206.266 12.9772 1636 
154.69 9.73227 1639.69 102.898 6.47379 1638.76 51.3487 3.23058 1637.19 
-0.000656041 -4.12746e-05 1638 -51.2559 -3.22475 1634.19 -102.837 -6.46993 1637.76 
-154.41 -9.71462 1636.7 -206.142 -12.9694 1635 -258.389 -16.2565 1634.62 
-311.749 -19.6136 1637.47 -364.234 -22.9157 1632.71 -419.706 -26.4056 1637.87 
-474.464 -29.8507 1636.34 -531.387 -33.432 1638.67 -586.89 -36.924 1633.37 
-648.826 -40.8207 1641.98 -706.322 -44.438 1635.44 -774.24 -48.711 1648.59 
-830.977 -52.2806 1634.11 -901.026 -56.6877 1642.2 -962.223 -60.5379 1630.24 
-1005.37 -63.2524 1587.34 -1018.73 -64.0931 1501.98 -1045.37 -65.7689 1441.67 
-1116.96 -70.2732 1442.82 -1185.81 -74.6051 1436.24 -1211.77 -76.2383 1377.2 
-1216.77 -76.5529 1298.29 -1199.71 -75.4794 1202.08 -1206.25 -75.8905 1134.98 
-1193.32 -75.0772 1054.13 -1201.17 -75.5711 995.655 -1189.2 -74.8183 924.263 
-1197.41 -75.3344 871.685 -1187 -74.6794 808.275 -1189 -74.8053 756.051 
-1195.79 -75.2327 708.585 -1187.68 -74.7223 654.221 -1191.59 -74.9687 608.346 
-1184.79 -74.5407 558.621 -1201.72 -75.6057 521.057 -1190.55 -74.903 472.303 
-1188.8 -74.7933 428.841 -1190.27 -74.8856 387.506 -1188.41 -74.7687 345.948 
-1190.94 -74.9276 306.385 -1186.32 -74.637 265.697 -1188.18 -74.7541 227.105 
-1186.83 -74.669 188.346 -1189.18 -74.8168 150.524 -1187.35 -74.7017 112.458 
-1187.3 -74.6986 74.8451 -1186.07 -74.6211 37.3462 -1185.66 -74.5951 -0.00123684 
-1183.72 -111.895 -0.00123788 -1183.14 -111.84 37.3462 -1181.39 -111.674 74.6567 
-1181.44 -111.679 112.176 -1184.27 -111.946 150.273 -1184.88 -112.004 188.502 
-1185.25 -112.039 227.105 -1184.36 -111.955 265.915 -1187.03 -112.208 306.136 
-1184.52 -111.97 345.669 -1188.28 -112.325 387.815 -1185.87 -112.098 428.841 
-1190.39 -112.525 473.407 -1185.96 -112.106 515.497 -1194.48 -112.911 564.582 
-1187.76 -112.277 607.892 -1194.34 -112.898 659.52 -1196.26 -113.08 710.621 
-1198.67 -113.308 764.088 -1193.12 -112.783 814.458 -1202.5 -113.67 877.562 
-1195.71 -113.027 931.618 -1208.94 -114.279 1004.58 -1198.59 -113.3 1061.4 
-1213.43 -114.703 1144.56 -1203.08 -113.725 1208.44 -1228.08 -116.088 1313.6 
-1213.39 -114.699 1382.45 -1169.56 -110.556 1420.06 -1109.93 -104.919 1437.29 
-1064.44 -100.619 1471.6 -1019.57 -96.3779 1506.94 -1002.88 -94.8005 1587.34 
-960.86 -90.828 1631.97 -892.566 -84.3723 1630.81 -830.28 -78.4846 1636.78 
-764.274 -72.2452 1631.4 -705.368 -66.6769 1637.27 -642.826 -60.7649 1630.83 
-586.452 -55.436 1636.19 -527.613 -49.8741 1631.06 -473.292 -44.7392 1636.34 
-417.431 -39.4589 1633.03 -364.638 -34.4684 1638.56 -310.046 -29.308 1632.56 
-258.218 -24.4088 1637.59 -205.508 -19.4263 1634.01 -153.934 -14.5511 1635.71 
-102.395 -9.67919 1634.77 -51.2544 -4.84497 1638.19 -0.00065482 -6.18987e-05 1639 
51.1593 4.83598 1635.19 102.269 9.66724 1632.77 153.277 14.489 1628.74 
206.006 19.4733 1637.98 258.217 24.4087 1637.59 311.351 29.4313 1639.44 
365.288 34.5299 1641.49 420.153 39.7162 1643.69 476.901 45.0804 1648.82 
532.226 50.3102 1645.33 593.532 56.1053 1655.95 651.254 61.5616 1652.21 
717.229 67.7981 1664.81 773.174 73.0865 1650.4 847.002 80.0653 1669.75 
907.912 85.823 1658.85 959.339 90.6842 1629.38 1048.23 99.0866 1659.1 
1099.59 103.942 1625.21 1204.29 113.839 1664.96 1284.44 121.416 1663.28 
1374.53 129.932 1668.93 1462.26 138.224 1666 1561.34 147.59 1670.07 
1612.79 152.454 1619.98 1764.26 166.771 1664.13 1815.43 171.608 1607.65 
1824.92 172.505 1516.43 1826.6 172.664 1423.17 1815.43 171.609 1324.87 
1825.5 172.561 1246.14 1814.81 171.55 1156.85 1824.39 172.455 1083.75 
1823.35 172.358 1006.87 1811.36 171.224 927.049 1821.44 172.177 860.926 
1810.92 171.182 787.147 1822.61 172.287 724.837 1811.59 171.245 655.119 
1813.19 171.397 591.767 1822.2 172.248 531.757 1821.53 172.186 469.775 
1821.72 172.204 409.018 1818.95 171.941 348.529 1820.1 172.05 289.56 
1820.35 172.074 230.989 1821.72 172.203 172.971 1821.26 172.16 115.095 
1822.97 172.321 57.5443 1823.87 172.406 -0.000218374 1818.55 229.736 -0.000218494 
1817.65 229.622 57.5757 1816.94 229.533 115.22 1815.41 229.34 172.971 
1815.03 229.292 231.114 1814.78 229.259 289.716 1813.62 229.114 348.716 
1818.32 229.707 409.673 1815.23 229.316 469.775 1817.79 229.641 532.315 
1814.46 229.22 594.24 1821.18 230.069 660.878 1827.36 230.85 729.255 
1814.66 229.245 791.516 1819.62 229.872 863.055 1813.93 229.152 931.588 
[...]
POINT_DATA 10100
SCALARS scalars double
LOOKUP_TABLE default
0.15341666667 0.15341666667 0.15383333333 0.15408333333 0.1545 0.15533333333 0.156 0.15733333333 0.15816666667 
0.15958333333 0.16091666667 0.16291666667 0.16441666667 0.1675 0.16933333333 0.17183333333 0.17475 0.1785 
0.1815 0.18575 0.18933333333 0.19475 0.19883333333 0.2035 0.20341666667 0.19741666667 0.19183333333 
0.18525 0.181 0.17525 0.17208333333 0.16708333333 0.16433333333 0.16008333333 0.15791666667 0.15425 
0.15266666667 0.14966666667 0.14825 0.14583333333 0.14458333333 0.14258333333 0.14158333333 0.14 0.13933333333 
0.13816666667 0.13766666667 0.13708333333 0.13683333333 0.13633333333 0.13641666667 0.13633333333 0.13658333333 0.13683333333 
0.13725 0.13791666667 0.13858333333 0.1395 0.14041666667 0.14183333333 0.14341666667 0.14483333333 0.14675 
0.14825 0.15058333333 0.15258333333 0.15525 0.15766666667 0.15708333333 0.15175 0.14866666667 0.15291666667 
0.15541666667 0.152 0.1485 0.14116666667 0.14116666667 0.1345 0.1345 0.12716666667 0.12425 
0.12125 0.11925 0.11641666667 0.11433333333 0.11216666667 0.11066666667 0.10858333333 0.107 0.10608333333 
0.1045 0.104 0.10283333333 0.10216666667 0.10125 0.10075 0.10041666667 0.1 0.099666666667 
0.0995 0.0995 0.099416666667 0.09925 0.099416666667 0.099833333333 0.10016666667 0.1005 0.10116666667 
0.10191666667 0.1025 0.10391666667 0.10458333333 0.10625 0.10783333333 0.10858333333 0.10858333333 0.112 
0.115 0.11683333333 0.11858333333 0.12225 0.12383333333 0.12825 0.1305 0.13558333333 0.13816666667 
0.14491666667 0.151 0.15425 0.15425 0.15116666667 0.15116666667 0.15233333333 0.15691666667 0.15766666667 
0.1555 0.15266666667 0.15075 0.14816666667 0.14658333333 0.14441666667 0.14325 0.14158333333 0.14066666667 
0.13941666667 0.13941666667 0.13783333333 0.13741666667 0.13683333333 0.1365 0.13625 0.13625 0.13633333333 
0.1365 0.13708333333 0.13708333333 0.13808333333 0.13908333333 0.14033333333 0.14141666667 0.143 0.14416666667 
0.14641666667 0.14808333333 0.1505 0.15275 0.15491666667 0.15791666667 0.16058333333 0.16466666667 0.16733333333 
0.17266666667 0.17841666667 0.18058333333 0.18058333333 0.19158333333 0.19158333333 0.20308333333 0.203 0.19833333333 
0.19366666667 0.18875 0.18508333333 0.18066666667 0.17766666667 0.1745 0.17125 0.16891666667 0.16608333333 
0.16441666667 0.162 0.16075 0.15883333333 0.15783333333 0.15625 0.15566666667 0.15441666667 0.154 
0.15341666667 0.15325 0.153 0.153 0.15291666667 0.15266666667 0.15283333333 0.1535 0.15375 
0.1545 0.15533333333 0.15683333333 0.1575 0.15941666667 0.1605 0.16275 0.164 0.167 
0.16866666667 0.172 0.17466666667 0.17733333333 0.18175 0.1845 0.19008333333 0.19325 0.19983333333 
0.20283333333 0.201 0.19725 0.19008333333 0.18575 0.17975 0.17616666667 0.17066666667 0.16775 
0.16316666667 0.15925 0.15741666667 0.15358333333 0.15225 0.15225 0.14783333333 0.14783333333 0.14425 
0.14291666667 0.14116666667 0.14025 0.13925 0.13841666667 0.13741666667 0.13725 0.13683333333 0.1365 
0.1365 0.13625 0.13675 0.137 0.13733333333 0.13791666667 0.13891666667 0.13941666667 0.14091666667 
0.142 0.14358333333 0.14466666667 0.14716666667 0.1485 0.15183333333 0.15283333333 0.15616666667 0.15783333333 
0.15666666667 0.15133333333 0.1485 0.15216666667 0.15533333333 0.153 0.14841666667 0.14166666667 0.13816666667 
0.13283333333 0.13016666667 0.12566666667 0.12358333333 0.11983333333 0.11758333333 0.116 0.11316666667 0.11166666667 
0.10933333333 0.10933333333 0.10691666667 0.1055 0.1045 0.10333333333 0.10266666667 0.1015 0.101 
0.10033333333 0.10008333333 0.099583333333 0.099333333333 0.099083333333 0.099 0.099083333333 0.099083333333 0.099083333333 
0.099333333333 0.099916666667 0.10041666667 0.101 0.10158333333 0.10258333333 0.10325 0.10458333333 0.1055 
0.10716666667 0.10816666667 0.1105 0.11158333333 0.11408333333 0.11633333333 0.11883333333 0.12075 0.12441666667 
0.12666666667 0.13133333333 0.13375 0.13933333333 0.14241666667 0.15016666667 0.15358333333 0.15358333333 0.15158333333 
0.15158333333 0.15183333333 0.15666666667 0.158 0.15508333333 0.15308333333 0.15025 0.14866666667 0.14616666667 
0.14491666667 0.14291666667 0.142 0.1405 0.13991666667 0.1385 0.13816666667 0.13725 0.13691666667 
0.1365 0.13658333333 0.13658333333 0.13633333333 0.13633333333 0.13633333333 0.13758333333 0.13816666667 0.13908333333 
0.14016666667 0.14141666667 0.14308333333 0.14416666667 0.14666666667 0.14808333333 0.15116666667 0.152 0.15616666667 
0.15775 0.15775 0.16375 0.16375 0.1715 0.17541666667 0.1805 0.18508333333 0.19091666667 
0.19091666667 0.20258333333 0.20258333333 0.19825 0.1935 0.18783333333 0.18475 0.17991666667 0.17741666667 
0.17416666667 0.17016666667 0.1685 0.16516666667 0.16408333333 0.16116666667 0.15958333333 0.15883333333 0.15741666667 
0.15625 0.155 0.15425 0.15358333333 0.15316666667 0.15275 0.15266666667 0.15266666667 0.15275 
0.15275 0.15291666667 0.15316666667 0.15366666667 0.15433333333 0.15508333333 0.1565 0.15741666667 0.159 
0.16025 0.16258333333 0.16508333333 0.16608333333 0.16891666667 0.171 0.17416666667 0.17733333333 0.18058333333 
0.18491666667 0.1885 0.19425 0.19825 0.20258333333 0.20241666667 0.19516666667 0.19066666667 0.18341666667 
0.18016666667 0.174 0.17116666667 0.16758333333 0.16283333333 0.16058333333 0.1565 0.15483333333 0.15183333333 
0.15 0.1475 0.146 0.14383333333 0.14266666667 0.141 0.14 0.14 0.13833333333 
0.13833333333 0.13708333333 0.13666666667 0.1365 0.13633333333 0.13633333333 0.13658333333 0.13708333333 0.1375 
0.13825 0.13916666667 0.13991666667 0.14091666667 0.1425 0.14391666667 0.14566666667 0.14708333333 0.14925 
0.15091666667 0.153 0.15591666667 0.15591666667 0.15683333333 0.1515 0.14841666667 0.152 0.15583333333 
0.15408333333 0.14791666667 0.14275 0.13741666667 0.13383333333 0.12958333333 0.12508333333 0.12308333333 0.12308333333 
0.11791666667 0.1155 0.11383333333 0.11125 0.10991666667 0.10808333333 0.10675 0.10525 0.1045 
0.10316666667 0.10241666667 0.1015 0.101 0.10025 0.099833333333 0.099333333333 0.099166666667 0.099166666667 
0.099 0.098916666667 0.099166666667 0.099333333333 0.0995 0.099916666667 0.10058333333 0.10091666667 0.10183333333 
0.10258333333 0.10383333333 0.10441666667 0.10591666667 0.10708333333 0.10933333333 0.11033333333 0.11275 0.11341666667 
0.117 0.11816666667 0.11816666667 0.12366666667 0.12366666667 0.13 0.13383333333 0.1385 0.14233333333 
0.14775 0.15383333333 0.15575 0.15233333333 0.1485 0.154 0.154 0.158 0.15591666667 
0.15233333333 0.151 0.1485 0.14683333333 0.14508333333 0.14325 0.14208333333 0.14083333333 0.13966666667 
0.13891666667 0.138 0.13741666667 0.13675 0.1365 0.13625 0.13633333333 0.13641666667 0.13641666667 
0.13691666667 0.13691666667 0.13825 0.139 0.14008333333 0.14125 0.14275 0.14458333333 0.14575 
0.148 0.14983333333 0.1525 0.1545 0.15783333333 0.16025 0.16416666667 0.16708333333 0.17225 
0.17775 0.17991666667 0.18508333333 0.19016666667 0.19708333333 0.20183333333 0.20216666667 0.19883333333 0.19275 
0.18908333333 0.18391666667 0.18116666667 0.17666666667 0.17458333333 0.17041666667 0.16875 0.1655 0.16416666667 
0.16141666667 0.1605 0.15891666667 0.15766666667 0.15633333333 0.15533333333 0.1545 0.15391666667 0.15333333333 
0.153 0.153 0.15291666667 0.153 0.15341666667 0.15341666667 0.1535 0.15391666667 0.15525 
0.15566666667 0.157 0.15775 0.16 0.16075 0.16075 0.1645 0.1645 0.16916666667 
0.17175 0.17491666667 0.17783333333 0.18191666667 0.18491666667 0.19 0.19366666667 0.19975 0.20275 
0.20183333333 0.19641666667 0.18941666667 0.185 0.17883333333 0.17383333333 0.17116666667 0.16583333333 0.1625 
0.16033333333 0.15625 0.15466666667 0.15208333333 0.14991666667 0.14783333333 0.14591666667 0.14591666667 0.14258333333 
0.14125 0.14033333333 0.139 0.13825 0.13766666667 0.13708333333 0.13666666667 0.13658333333 0.13641666667 
0.1365 0.13641666667 0.13691666667 0.1375 0.13816666667 0.13908333333 0.13975 0.14091666667 0.14208333333 
0.14341666667 0.14483333333 0.14708333333 0.14891666667 0.151 0.1535 0.15566666667 0.15825 0.15733333333 
0.152 0.14858333333 0.15233333333 0.15625 0.15241666667 0.14866666667 0.14316666667 0.137 0.13391666667 
0.13041666667 0.12691666667 0.12391666667 0.12116666667 0.1185 0.11633333333 0.11366666667 0.11183333333 0.10975 
0.10866666667 0.10716666667 0.10583333333 0.10483333333 0.10375 0.10266666667 0.10183333333 0.10116666667 0.10058333333 
0.10016666667 0.09975 0.099416666667 0.09925 0.099166666667 0.099333333333 0.099833333333 0.099833333333 0.1 
0.10033333333 0.10108333333 0.10133333333 0.10208333333 0.10316666667 0.104 0.10475 0.10608333333 0.1075 
0.10883333333 0.11066666667 0.11233333333 0.11425 0.11641666667 0.11883333333 0.1215 0.12416666667 0.12716666667 
0.1305 0.1345 0.13975 0.14441666667 0.14925 0.155 0.15666666667 0.15258333333 0.14883333333 
0.15366666667 0.15741666667 0.15758333333 0.156 0.15241666667 0.15108333333 0.14791666667 0.14791666667 0.145 
0.14358333333 0.142 0.14091666667 0.13966666667 0.13891666667 0.13816666667 0.13758333333 0.13691666667 0.13666666667 
0.13666666667 0.13633333333 0.13641666667 0.13675 0.137 0.13758333333 0.13791666667 0.13908333333 0.14 
0.14091666667 0.1425 0.14441666667 0.146 0.14775 0.14966666667 0.15183333333 0.15458333333 0.157 
0.16016666667 0.16333333333 0.16683333333 0.17091666667 0.17508333333 0.1795 0.18616666667 0.19075 0.19633333333 
0.20216666667 0.20141666667 0.198 0.19441666667 0.18925 0.185 0.18058333333 0.17766666667 0.174 
0.17166666667 0.16833333333 0.166 0.16466666667 0.16275 0.16116666667 0.1595 0.15825 0.15691666667 
0.156 0.15516666667 0.15466666667 0.154 0.15383333333 0.15366666667 0.15358333333 0.15408333333 0.15466666667 
0.15466666667 0.15441666667 0.15541666667 0.156 0.157 0.1575 0.15958333333 0.16033333333 0.16033333333 
0.16366666667 0.16366666667 0.16725 0.16983333333 0.17266666667 0.17525 0.17891666667 0.18158333333 0.18566666667 
0.19 0.196 0.20008333333 0.20316666667 0.20208333333 0.19425 0.19 0.18258333333 0.17958333333 
0.1735 0.17083333333 0.16516666667 0.16316666667 0.15858333333 0.15708333333 0.15708333333 0.15175 0.14975 
0.1475 0.14591666667 0.14408333333 0.1425 0.14116666667 0.14 0.13858333333 0.13816666667 0.13816666667 
0.13725 0.13725 0.1365 0.13641666667 0.13658333333 0.13675 0.13708333333 0.13758333333 0.13825 
0.13891666667 0.14008333333 0.1415 0.14225 0.14383333333 0.14525 0.14708333333 0.14891666667 0.15116666667 
0.15391666667 0.15575 0.15833333333 0.15816666667 0.15816666667 0.15016666667 0.15158333333 0.15491666667 0.15441666667 
0.14808333333 0.14325 0.13875 0.13491666667 0.13083333333 0.12766666667 0.12383333333 0.12183333333 0.11858333333 
0.11691666667 0.11425 0.113 0.1105 0.1095 0.10741666667 0.10675 0.105 0.10441666667 
0.10308333333 0.10266666667 0.10266666667 0.10133333333 0.10083333333 0.10058333333 0.10025 0.1 0.099916666667 
0.10025 0.099583333333 0.1005 0.10058333333 0.10125 0.10125 0.10216666667 0.10283333333 0.10341666667 
0.10391666667 0.10483333333 0.10658333333 0.10733333333 0.10833333333 0.10991666667 0.11191666667 0.11266666667 0.11408333333 
0.11608333333 0.11775 0.11758333333 0.11983333333 0.12216666667 0.12408333333 0.12483333333 0.12866666667 0.131 
0.137 0.14091666667 0.14608333333 0.14733333333 0.15333333333 0.1585 0.159 0.1555 0.15358333333 
0.15058333333 0.14908333333 0.14633333333 0.14516666667 0.14308333333 0.14225 0.14075 0.13983333333 0.139 
0.138 0.1375 0.13691666667 0.1365 0.13658333333 0.13625 0.13641666667 0.13658333333 0.13716666667 
0.13733333333 0.1385 0.13891666667 0.14058333333 0.14108333333 0.14108333333 0.14408333333 0.14408333333 0.14775 
0.14933333333 0.15233333333 0.15433333333 0.15433333333 0.16033333333 0.16033333333 0.16725 0.16725 0.17508333333 
0.17908333333 0.18433333333 0.19208333333 0.19591666667 0.20275 0.204 0.204 0.196 0.18991666667 
0.18616666667 0.18183333333 0.17941666667 0.17533333333 0.1735 0.17025 0.16783333333 0.16541666667 0.164 
0.16241666667 0.16091666667 0.15966666667 0.15841666667 0.1575 0.1565 0.156 0.15533333333 0.15516666667 
0.15508333333 0.155 0.15575 0.1565 0.15666666667 0.15633333333 0.15675 0.15758333333 0.159 
0.15941666667 0.16091666667 0.16191666667 0.164 0.16533333333 0.16691666667 0.16883333333 0.17258333333 0.17458333333 
0.17825 0.18058333333 0.185 0.18708333333 0.1935 0.197 0.20258333333 0.20433333333 0.20016666667 
0.19575 0.18808333333 0.18433333333 0.17775 0.17475 0.16933333333 0.16675 0.162 0.15991666667 
0.15583333333 0.15416666667 0.15066666667 0.1495 0.1465 0.14566666667 0.14341666667 0.14241666667 0.14058333333 
0.13983333333 0.13875 0.13816666667 0.13733333333 0.13708333333 0.13641666667 0.13633333333 0.1365 0.1365 
0.13691666667 0.13691666667 0.13775 0.13841666667 0.13933333333 0.13983333333 0.14166666667 0.14241666667 0.14416666667 
0.14516666667 0.148 0.14916666667 0.15241666667 0.15333333333 0.15333333333 0.15916666667 0.15916666667 0.15383333333 
0.14666666667 0.14016666667 0.13483333333 0.12941666667 0.12333333333 0.11883333333 0.11658333333 0.11658333333 0.11016666667 
0.10783333333 0.10475 0.103 0.1005 0.098583333333 0.097 0.0955 0.094333333333 0.09275 
0.092333333333 0.092333333333 0.090833333333 0.090666666667 0.09025 0.090083333333 0.0905 0.090583333333 0.0915 
0.092083333333 0.09275 0.094 0.095666666667 0.085833333333 0.085166666667 0.08475 0.08625 0.08625 
0.086166666667 0.086166666667 0.086916666667 0.0875 0.088333333333 0.08925 0.090333333333 0.09125 0.092666666667 
0.093916666667 0.095833333333 0.097083333333 0.0995 0.10083333333 0.10375 0.10558333333 0.10916666667 0.11091666667 
0.11508333333 0.11758333333 0.12266666667 0.1255 0.13175 0.13566666667 0.143 0.148 0.15683333333 
0.15941666667 0.15841666667 0.156 0.15391666667 0.15108333333 0.14933333333 0.14675 0.14541666667 0.14341666667 
0.14233333333 0.14066666667 0.14 0.13875 0.13808333333 0.13766666667 0.13716666667 0.13666666667 0.1365 
0.13641666667 0.13625 0.13658333333 0.137 0.13758333333 0.13808333333 0.13908333333 0.13983333333 0.14141666667 
0.14275 0.14358333333 0.14575 0.14741666667 0.14991666667 0.15166666667 0.15483333333 0.15683333333 0.16008333333 
0.16275 0.16658333333 0.172 0.17458333333 0.18116666667 0.18408333333 0.18408333333 0.19558333333 0.19558333333 
0.20525 0.20383333333 0.19816666667 0.194 0.188 0.18541666667 0.18158333333 0.17908333333 0.17591666667 
0.17591666667 0.17033333333 0.17033333333 0.1665 0.16491666667 0.16291666667 0.16166666667 0.16058333333 0.15958333333 
0.15875 0.15808333333 0.15766666667 0.15733333333 0.15716666667 0.15716666667 0.15783333333 0.15916666667 0.15916666667 
0.15841666667 0.15841666667 0.16058333333 0.16108333333 0.16166666667 0.16308333333 0.165 0.16633333333 0.168 
0.16925 0.17241666667 0.17475 0.17708333333 0.18008333333 0.18341666667 0.18633333333 0.1925 0.19583333333 
0.20216666667 0.205 0.20366666667 0.20125 0.20125 0.18866666667 0.18866666667 0.17858333333 0.17458333333 
0.17016666667 0.16458333333 0.16283333333 0.16283333333 0.1565 0.15416666667 0.15158333333 0.14933333333 0.1475 
0.14541666667 0.14391666667 0.14225 0.141 0.13966666667 0.13916666667 0.13808333333 0.13758333333 0.13708333333 
0.13683333333 0.1365 0.13633333333 0.13666666667 0.13658333333 0.13716666667 0.13741666667 0.13858333333 0.13916666667 
0.1405 0.14116666667 0.14325 0.14366666667 0.14558333333 0.14708333333 0.14958333333 0.15116666667 0.1545 
0.15625 0.15925 0.15816666667 0.15675 0.15675 0.14208333333 0.14208333333 0.12958333333 0.1255 
0.1255 0.11833333333 0.114 0.11208333333 0.10775 0.10633333333 0.10633333333 0.10175 0.10175 
0.097833333333 0.0965 0.094666666667 0.093416666667 0.092 0.091 0.089833333333 0.089166666667 0.088083333333 
0.087583333333 0.086833333333 0.086583333333 0.086 0.085833333333 0.085333333333 0.08525 0.08525 0.086083333333 
0.086666666667 0.086583333333 0.086083333333 0.087 0.087583333333 0.088 0.087916666667 0.087916666667 0.090416666667 
0.090666666667 0.092166666667 0.093083333333 0.094916666667 0.095666666667 0.097583333333 0.09875 0.10158333333 0.10283333333 
0.10558333333 0.1075 0.11066666667 0.11275 0.11675 0.11891666667 0.12233333333 0.12483333333 0.13008333333 
0.13308333333 0.14575 0.151 0.15891666667 0.16066666667 0.15875 0.1565 0.15316666667 0.1515 
0.14916666667 0.1465 0.14525 0.14316666667 0.14233333333 0.14058333333 0.13983333333 0.13866666667 0.13833333333 
0.1375 0.13716666667 0.13683333333 0.1365 0.13633333333 0.13641666667 0.1365 0.13683333333 0.1375 
0.13791666667 0.13916666667 0.13983333333 0.14141666667 0.14266666667 0.14425 0.14525 0.14783333333 0.14933333333 
0.15225 0.15375 0.15758333333 0.15941666667 0.16366666667 0.16566666667 0.1715 0.17416666667 0.18058333333 
0.18341666667 0.19133333333 0.19483333333 0.20283333333 0.20675 0.20508333333 0.20216666667 0.19616666667 0.19225 
0.18833333333 0.18516666667 0.18208333333 0.17908333333 0.17558333333 0.17316666667 0.17091666667 0.16933333333 0.16933333333 
0.16616666667 0.16491666667 0.16358333333 0.16266666667 0.16175 0.16116666667 0.1605 0.16025 0.16008333333 
0.16 0.16133333333 0.16283333333 0.16225 0.16133333333 0.16283333333 0.16416666667 0.16483333333 0.16483333333 
0.16483333333 0.1685 0.1685 0.171 0.171 0.17558333333 0.17791666667 0.18108333333 0.18375 
0.18675 0.19158333333 0.19383333333 0.20158333333 0.20441666667 0.208 0.204 0.20091666667 0.20091666667 
0.18825 0.18825 0.17833333333 0.17441666667 0.16966666667 0.16616666667 0.16258333333 0.15966666667 0.15675 
0.15408333333 0.15158333333 0.14941666667 0.14733333333 0.14558333333 0.14558333333 0.14216666667 0.141 0.13975 
0.13925 0.13783333333 0.13766666667 0.13716666667 0.13675 0.1365 0.1365 0.13675 0.13675 
0.13725 0.13775 0.1385 0.13975 0.14016666667 0.14166666667 0.14258333333 0.14458333333 0.14558333333 
0.14816666667 0.14933333333 0.15266666667 0.15391666667 0.15791666667 0.15941666667 0.16016666667 0.15916666667 0.14858333333 
0.1455 0.1455 0.13008333333 0.13008333333 0.12216666667 0.12016666667 0.11758333333 0.1145 0.11116666667 
0.10875 0.106 0.104 0.10208333333 0.099583333333 0.098416666667 0.09625 0.095333333333 0.09375 
0.092916666667 0.0915 0.090916666667 0.090916666667 0.089416666667 0.089416666667 0.08825 0.088 0.0875 
0.087333333333 0.087166666667 0.087166666667 0.087666666667 0.089 0.088666666667 0.088083333333 0.088583333333 0.088583333333 
0.090083333333 0.090083333333 0.090916666667 0.092333333333 0.09325 0.093666666667 0.09525 0.096666666667 0.098083333333 
0.099833333333 0.10116666667 0.10391666667 0.10541666667 0.10825 0.11 0.11383333333 0.11575 0.119 
0.12125 0.12283333333 0.12683333333 0.12683333333 0.13675 0.14991666667 0.15425 0.16016666667 0.16133333333 
0.15975 0.15591666667 0.15408333333 0.15091666667 0.14941666667 0.14666666667 0.14541666667 0.1435 0.14233333333 
0.14091666667 0.14 0.13916666667 0.13833333333 0.1375 0.13725 0.13675 0.1365 0.1365 
0.13658333333 0.13666666667 0.13691666667 0.13741666667 0.13808333333 0.13916666667 0.13975 0.1415 0.14258333333 
0.14433333333 0.14525 0.14825 0.14925 0.15266666667 0.15408333333 0.15791666667 0.15916666667 0.16416666667 
0.16608333333 0.16975 0.17541666667 0.17816666667 0.18525 0.18841666667 0.19691666667 0.20375 0.20775 
0.20791666667 0.2065 0.2065 0.2065 0.19191666667 0.18875 0.18616666667 0.1825 0.18041666667 
0.17708333333 0.175 0.17291666667 0.17166666667 0.16958333333 0.1685 0.16691666667 0.16625 0.16508333333 
0.16466666667 0.164 0.16383333333 0.16366666667 0.16358333333 0.16358333333 0.16725 0.16725 0.16508333333 
0.16583333333 0.1685 0.16891666667 0.16866666667 0.17016666667 0.173 0.17408333333 0.17491666667 0.17658333333 
0.18083333333 0.18241666667 0.18566666667 0.18808333333 0.19208333333 0.19433333333 0.20041666667 0.20391666667 0.20958333333 
0.21091666667 0.21091666667 0.2 0.2 0.18791666667 0.18308333333 0.17791666667 0.17408333333 0.16916666667 
0.16591666667 0.16208333333 0.15958333333 0.156 0.15391666667 0.15083333333 0.14933333333 0.14666666667 0.14541666667 
0.14325 0.14225 0.1405 0.13966666667 0.13875 0.13825 0.13741666667 0.13708333333 0.13666666667 