# vtk DataFile Version 4.2
vtk output
ASCII
DATASET POLYDATA
POINTS 40200 float
1845 0 0 1844.77 0 28.98 1844.09 0 57.9528 
1844.95 0 87.0056 1844.35 0 116.037 1844.3 0 145.149 
1845.77 0 174.477 1846.78 0 203.886 1845.33 0 233.12 
1846.39 0 262.781 1845.99 0 292.376 1849.05 0 322.711 
1847.68 0 352.464 1841.92 0 381.443 1851.31 0 413.818 
1850.42 0 444.247 1848.06 0 474.5 1850.99 0 506.372 
1849.53 0 537.337 1851.37 0 569.556 1842.2 0 598.566 
1851.49 0 633.907 1841.3 0 662.91 1853.11 0 700.234 
1858.62 0 735.881 1859.77 0 770.342 1858.45 0 804.225 
1855.62 0 837.843 1861.23 0 875.828 1854.43 0 908.475 
1863.09 0 949.294 1857.68 0 983.589 1842 0 1012.65 
1861.48 0 1061.77 1865.23 0 1103.09 1868.13 0 1144.79 
1859.21 0 1179.89 1868.86 0 1227.62 1871.68 0 1271.99 
1867.84 0 1312.74 1862.36 0 1353.08 1873.66 0 1406.78 
1866.35 0 1447.69 1879.28 0 1505.58 1876.2 0 1552.13 
1859.95 0 1588.55 1837.77 0 1620.21 1791.39 0 1630.04 
1758.27 0 1651.13 1698.37 0 1645.83 1644.02 0 1644.02 
1600.6 0 1651.69 1574.46 0 1676.63 1494.09 0 1641.98 
1448.93 0 1643.49 1408.65 0 1649.32 1382.57 0 1671.24 
1316.76 0 1643.59 1279.14 0 1649.05 1232.66 0 1641.75 
1189.68 0 1637.45 1150.01 0 1636.3 1112.92 0 1637.62 
1080.48 0 1644.87 1040.58 0 1639.69 1008.94 0 1646.45 
968.196 0 1637.13 935.425 0 1639.98 903.288 0 1643.08 
868.009 0 1639.39 835.342 0 1639.45 803.328 0 1639.8 
770.234 0 1636.83 739.902 0 1638.7 711.291 0 1643.7 
678.114 0 1637.11 648.635 0 1638.27 619.287 0 1638.9 
590.081 0 1639.01 561.024 0 1638.62 532.436 0 1638.67 
503.984 0 1638.23 475.679 0 1637.3 448.056 0 1637.82 
420.285 0 1636.91 392.888 0 1636.5 365.607 0 1635.64 
339.871 0 1641.18 311.989 0 1635.51 285.23 0 1634.3 
259.993 0 1641.54 233.473 0 1640.47 207.802 0 1644.93 
181.171 0 1641.03 155.372 0 1643.67 129.535 0 1645.91 
103.415 0 1643.75 77.5835 0 1645.17 51.5442 0 1640.19 
25.7906 0 1641.8 -0.00085519 -0 1643 -25.808 -0 1642.8 
-51.5773 -0 1641.19 -77.7265 -0 1648.17 -103.229 -0 1640.76 
-129.38 -0 1643.92 -155.562 -0 1645.66 -181.831 -0 1646.99 
-208.179 -0 1647.9 -234.742 -0 1649.38 -260.777 -0 1646.48 
-287.294 -0 1646.12 -313.865 -0 1645.33 -340.481 -0 1644.11 
-369.099 -0 1651.25 -396.391 -0 1651.08 -424.017 -0 1651.43 
-450.696 -0 1647.46 -478.471 -0 1646.9 -507.221 -0 1648.74 
-535.528 -0 1648.18 -564.913 -0 1649.97 -594.825 -0 1652.19 
-623.884 -0 1651.06 -653.79 -0 1651.28 -686.153 -0 1656.52 
-715.264 -0 1652.88 -746.488 -0 1653.29 -777.474 -0 1652.21 
-809.049 -0 1651.47 -841.245 -0 1651.03 -875.498 -0 1653.53 
-914.37 -0 1663.23 -941.372 -0 1650.4 -970.234 -0 1640.57 
-995.883 -0 1625.13 -1000.93 -0 1577.2 -1005.26 -0 1530.36 
-1011.19 -0 1487.92 -1029.26 -0 1464.49 -1060.95 -0 1460.28 
-1092.77 -0 1455.43 -1128.98 -0 1455.46 -1167.33 -0 1457.06 
-1193.9 -0 1443.17 -1201.48 -0 1406.75 -1211.52 -0 1374.2 
-1202 -0 1320.98 -1203.43 -0 1281.53 -1207.41 -0 1245.95 
-1197.84 -0 1197.84 -1196.4 -0 1159.39 -1204.99 -0 1131.56 
-1205.6 -0 1097.01 -1195.68 -0 1054.13 -1196.12 -0 1021.58 
-1194.3 -0 988.006 -1201.08 -0 962.247 -1193.13 -0 925.489 
-1195.53 -0 897.627 -1199.77 -0 871.685 -1207.59 -0 848.707 
-1205.88 -0 819.517 -1201.06 -0 788.945 -1201.48 -0 762.481 
-1206.49 -0 739.334 -1206.76 -0 713.675 -1203.06 -0 686.209 
-1201.42 -0 660.483 -1206.34 -0 638.723 -1200.19 -0 611.524 
-1203.36 -0 589.517 -1203.42 -0 566.285 -1206.7 -0 544.844 
-1205.93 -0 521.851 -1203.82 -0 498.635 -1205.92 -0 477.456 
-1206.72 -0 455.981 -1206.21 -0 434.261 -1206.26 -0 412.994 
-1205.94 -0 391.832 -1206.21 -0 371.078 -1206.13 -0 350.412 
-1204.73 -0 329.576 -1205.89 -0 309.618 -1204.77 -0 289.238 
-1206.23 -0 269.624 -1204.44 -0 249.427 -1207.23 -0 230.29 
-1207.74 -0 210.784 -1207.94 -0 191.318 -1208.82 -0 172.039 
-1207.4 -0 152.529 -1209.65 -0 133.545 -1207.62 -0 114.152 
-1206.27 -0 94.9343 -1206.61 -0 75.9125 -1205.66 -0 56.8563 
-1207.4 -0 37.943 -1206.85 -0 18.9575 -1208 -0 -0.00125766 
-1207.85 -18.9744 -0.00125766 -1206.7 -18.9564 18.9575 -1207.26 -18.9651 37.943 
-1207.51 -18.9691 56.9505 -1208.46 -18.984 76.0381 -1209.11 -18.9942 95.1697 
-1209.46 -18.9997 114.34 -1209.5 -19.0004 133.545 -1209.24 -18.9962 152.78 
-1211.64 -19.034 172.462 -1211.74 -19.0356 191.944 -1211.54 -19.0323 211.472 
-1212.98 -19.0549 231.415 -1214.09 -19.0724 251.455 -1214.87 -19.0847 271.587 
-1217.26 -19.1222 292.272 -1216.39 -19.1086 312.353 -1217.12 -19.1201 333.007 
-1218.46 -19.1411 354.039 -1215.62 -19.0965 374.018 -1216.25 -19.1064 395.232 
-1215.57 -19.0957 416.233 -1219.23 -19.1532 439.003 -1217.8 -19.1307 460.223 
-1216.93 -19.117 481.874 -1220.29 -19.1699 505.524 -1219.55 -19.1582 527.808 
-1221.13 -19.183 551.428 -1223.18 -19.2152 575.653 -1223.86 -19.2259 599.636 
-1224.09 -19.2296 623.782 -1225.63 -19.2538 649.018 -1224.05 -19.2289 673.009 
-1224.62 -19.2379 698.596 -1230.71 -19.3335 727.928 -1232.77 -19.3658 755.532 
-1234.26 -19.3892 783.378 -1226.81 -19.2723 805.965 -1230.54 -19.3309 836.379 
-1228.71 -19.3021 863.657 -1236.84 -19.4298 898.723 -1235.36 -19.4066 927.648 
-1220.64 -19.1753 946.94 -1230.59 -19.3316 986.007 -1230.36 -19.328 1017.97 
-1245.39 -19.5642 1063.79 -1238.28 -19.4525 1091.82 -1247.6 -19.5989 1135.37 
-1251.49 -19.6599 1175.37 -1232.87 -19.3675 1194.88 -1213.95 -19.0703 1214.1 
-1255.97 -19.7303 1296.22 -1251.2 -19.6554 1332.55 -1254.34 -19.7048 1378.67 
-1234.52 -19.3934 1400.46 -1212.37 -19.0454 1419.68 -1175.27 -18.4625 1420.83 
-1134.05 -17.8151 1415.7 -1098.19 -17.2518 1415.96 -1072.22 -16.8438 1428.24 
-1059.06 -16.637 1457.85 -1061.9 -16.6817 1511.12 -1051.53 -16.5187 1547.47 
-1039.72 -16.3333 1583.02 -1017.41 -15.9828 1603.38 -991.059 -15.5688 1617.46 
-958.408 -15.0559 1620.78 -923.917 -14.5141 1620 -887.282 -13.9385 1614.16 
-858.546 -13.4871 1621.71 -825.254 -12.9641 1619.85 -795.753 -12.5007 1624.53 
-764.18 -12.0047 1624.16 -733.641 -11.5249 1625.03 -703.263 -11.0477 1625.34 
-672.675 -10.5672 1624.18 -643.403 -10.1074 1625.25 -617.799 -9.70516 1635.16 
-585.607 -9.19944 1626.78 -555.775 -8.7308 1623.48 -528.664 -8.30491 1627.26 
-500.69 -7.86546 1627.72 -472.275 -7.41908 1625.78 -445.1 -6.99219 1627.21 
-418.246 -6.57033 1629.16 -390.507 -6.13457 1626.77 -364.255 -5.72218 1629.78 
-339.628 -5.3353 1640.2 -312.702 -4.91231 1639.44 -286.399 -4.49912 1641.19 
-259.65 -4.07891 1639.56 -233.868 -3.67389 1643.44 -208.028 -3.26797 1646.91 
-181.15 -2.84573 1641.03 -155.072 -2.43607 1640.69 -129.128 -2.02851 1640.93 
-103.278 -1.62243 1641.75 -77.4341 -1.21643 1642.17 -51.5708 -0.810139 1641.19 
-25.8046 -0.405371 1642.8 -0.000659664 -1.03628e-05 1644 25.8347 0.405844 1644.8 
51.6323 0.811105 1643.19 77.5741 1.21863 1645.17 103.403 1.62438 1643.75 
129.676 2.03712 1647.9 155.541 2.44344 1645.66 181.807 2.85605 1646.99 
208.278 3.27189 1648.89 234.994 3.69158 1651.36 262.308 4.12066 1656.35 
288.977 4.53961 1655.97 315.698 4.95938 1655.15 342.465 5.37987 1653.91 
370.797 5.82495 1659.06 397.508 6.24455 1655.95 425.953 6.6914 1659.18 
454.069 7.13309 1660 481.2 7.55929 1656.51 510.979 8.02709 1661.17 
541.948 8.51361 1668.15 570.672 8.96483 1667 600.169 9.42821 1667.24 
631.581 9.92167 1671.64 662.174 10.4023 1672.67 692.954 10.8858 1673.15 
725.499 11.3971 1676.74 754.624 11.8546 1671.51 780.783 12.2655 1659.45 
820.825 12.8945 1675.72 847.041 13.3064 1662.62 888.957 13.9648 1679.15 
927.261 14.5666 1686.89 956.117 15.0199 1676.46 997.598 15.6715 1687.05 
1034.94 16.2582 1689.08 1066.16 16.7486 1680.21 1109.99 17.4371 1690 
1145.38 17.9931 1685.59 1182.64 18.5784 1682.93 1208.92 18.9913 1664.15 
1270.33 19.956 1692.13 1310.85 20.5924 1690.14 1352.86 21.2524 1688.85 
1409.81 22.147 1704.38 1455.23 22.8606 1704.07 1504.96 23.6418 1707.25 
1553.79 24.4089 1707.81 1594.8 25.0531 1698.5 1654.68 25.9937 1707.7 
1706.74 26.8117 1706.96 1752.01 27.5228 1698.03 1784.29 28.0299 1675.77 
1805.22 28.3586 1642.82 1830.8 28.7604 1614.26 1855.92 29.1551 1585.3 
1818.96 28.5745 1504.96 1808.81 28.4151 1449.31 1809.23 28.4217 1403.56 
1812.66 28.4756 1361.15 1819.25 28.5791 1321.93 1812.8 28.4777 1274.21 
1821.83 28.6196 1238.27 1841.06 28.9216 1209.5 1817.61 28.5534 1153.64 
1822.72 28.6336 1117.1 1813.36 28.4865 1072.55 1815.22 28.5157 1035.51 
1824.25 28.6575 1003.01 1819.45 28.5822 963.467 1824.56 28.6624 929.772 
1824.57 28.6626 893.956 1820.29 28.5954 856.668 1822.58 28.6314 823.029 
1826.11 28.6868 790.324 1827.21 28.7041 756.948 1824 28.6536 722.26 
1835.11 28.8283 693.517 1826.02 28.6855 657.49 1828.56 28.7253 626.132 
1830.56 28.7567 594.857 1827.25 28.7047 562.205 1830.09 28.7494 531.757 
1828.58 28.7256 500.303 1831.36 28.7694 470.272 1838.52 28.8819 441.445 
1832.55 28.7879 409.673 1838.75 28.8854 380.834 1833.7 28.8061 349.841 
1834.05 28.8115 320.132 1834.9 28.8249 290.655 1836.27 28.8464 261.371 
1835.19 28.8294 231.866 1836.61 28.8518 202.789 1837.58 28.867 173.724 
1840.08 28.9063 144.835 1839.14 28.8915 115.723 1839.73 28.9008 86.7697 
1839.86 28.9029 57.8269 1840.55 28.9136 28.9168 1841.77 28.9329 -0.00032935 
1840.09 57.8272 -0.000329171 1837.87 57.7573 28.8854 1837.19 57.7359 57.7641 
1835.05 57.6689 86.5813 1836.46 57.7131 115.597 1838.4 57.7742 144.757 
1838.89 57.7895 173.912 1837.92 57.759 203.008 1840.46 57.8387 232.618 
1839.55 57.8101 261.935 1841.13 57.8598 291.75 1841.25 57.8635 321.507 
1839.9 57.8211 351.152 1834.16 57.6407 380.023 1842.6 57.9059 412.072 
1841.73 57.8787 442.379 1844.24 57.9576 473.754 1843.32 57.9288 504.525 
1845.73 58.0045 536.5 1845.68 58.0029 568.086 1847.94 58.0739 600.729 
1847.74 58.0675 632.934 1846.04 58.0141 664.942 1849.4 58.1196 699.173 
1845.62 58.0011 731.095 1852.39 58.2136 767.663 1848.36 58.0871 800.253 
1848.32 58.0859 834.963 1851.27 58.1784 871.57 1849.02 58.1079 906.275 
1855.94 58.3253 946.116 1850.58 58.1567 980.313 1851.6 58.1888 1018.43 
1852.74 58.2249 1057.31 1852.26 58.2097 1095.97 1862.95 58.5456 1142.18 
1854.92 58.2931 1177.75 1861.26 58.4924 1223.22 1863.32 58.5572 1266.94 
1860.37 58.4645 1308.14 1863.86 58.5743 1354.85 1867.14 58.6773 1402.58 
[...]
POINT_DATA 40200
SCALARS scalars double
LOOKUP_TABLE default
0.15375 0.15375 0.15375 0.15391666667 0.154 0.15416666667 0.1545 0.15483333333 0.155 
0.15541666667 0.15575 0.15641666667 0.15675 0.15675 0.15808333333 0.15858333333 0.159 0.15991666667 
0.1605 0.16141666667 0.16141666667 0.16308333333 0.16308333333 0.16508333333 0.16658333333 0.16775 0.16875 
0.16966666667 0.17141666667 0.17208333333 0.17425 0.17516666667 0.17516666667 0.17858333333 0.18058333333 0.18258333333 
0.1835 0.18633333333 0.18858333333 0.19025 0.19183333333 0.19525 0.19683333333 0.20066666667 0.20291666667 
0.20383333333 0.20416666667 0.20183333333 0.201 0.19708333333 0.19375 0.19166666667 0.19166666667 0.185 
0.18258333333 0.18075 0.18075 0.1755 0.17391666667 0.17108333333 0.16866666667 0.16666666667 0.165 
0.164 0.16183333333 0.16091666667 0.1585 0.15733333333 0.15625 0.15458333333 0.15333333333 0.15216666667 
0.15075 0.14983333333 0.14925 0.14766666667 0.14683333333 0.146 0.14516666667 0.14433333333 0.14358333333 
0.14283333333 0.14208333333 0.1415 0.14083333333 0.14025 0.13966666667 0.13966666667 0.13875 0.13825 
0.1385 0.13808333333 0.13816666667 0.13758333333 0.13758333333 0.13758333333 0.13725 0.13725 0.13675 
0.13683333333 0.13691666667 0.13691666667 0.13683333333 0.1375 0.137 0.13741666667 0.13775 0.13808333333 
0.13841666667 0.13883333333 0.13891666667 0.13925 0.13958333333 0.13991666667 0.141 0.1415 0.14208333333 
0.14233333333 0.14291666667 0.14375 0.14441666667 0.14533333333 0.14633333333 0.14708333333 0.148 0.14941666667 
0.15008333333 0.15116666667 0.15216666667 0.15325 0.15441666667 0.15591666667 0.15816666667 0.15833333333 0.15883333333 
0.15883333333 0.15566666667 0.15258333333 0.14991666667 0.14916666667 0.15041666667 0.15166666667 0.1535 0.15558333333 
0.15608333333 0.15416666667 0.15266666667 0.14883333333 0.1465 0.14458333333 0.14116666667 0.13883333333 0.13775 
0.13583333333 0.13283333333 0.13108333333 0.12916666667 0.12825 0.12583333333 0.12458333333 0.12358333333 0.123 
0.1215 0.11975 0.11858333333 0.11791666667 0.11683333333 0.11541666667 0.11425 0.11375 0.11225 
0.11166666667 0.11083333333 0.11033333333 0.1095 0.10858333333 0.10808333333 0.1075 0.10683333333 0.10625 
0.10566666667 0.10516666667 0.10466666667 0.10408333333 0.10375 0.10325 0.103 0.1025 0.10241666667 
0.10216666667 0.10191666667 0.10175 0.10141666667 0.10141666667 0.10108333333 0.10083333333 0.10075 0.10058333333 
0.10066666667 0.10058333333 0.10066666667 0.10066666667 0.10058333333 0.10066666667 0.10075 0.10091666667 0.10108333333 
0.10125 0.10141666667 0.10158333333 0.102 0.10225 0.1025 0.10291666667 0.10333333333 0.10375 
0.10433333333 0.10466666667 0.10516666667 0.10575 0.106 0.10658333333 0.10708333333 0.108 0.1085 
0.10908333333 0.11008333333 0.11075 0.11166666667 0.11266666667 0.11358333333 0.1145 0.11558333333 0.11641666667 
0.1175 0.11916666667 0.1205 0.12183333333 0.12233333333 0.124 0.12516666667 0.12741666667 0.12875 
0.12875 0.13141666667 0.13308333333 0.1365 0.13758333333 0.14058333333 0.14308333333 0.14308333333 0.14308333333 
0.15041666667 0.15233333333 0.15533333333 0.15558333333 0.15558333333 0.15366666667 0.15116666667 0.14933333333 0.14883333333 
0.15016666667 0.15391666667 0.15591666667 0.15783333333 0.15825 0.15808333333 0.15691666667 0.15541666667 0.1535 
0.15291666667 0.1515 0.15075 0.14958333333 0.14858333333 0.14758333333 0.1465 0.14566666667 0.14566666667 
0.14408333333 0.143 0.14258333333 0.14191666667 0.14108333333 0.14058333333 0.14016666667 0.13941666667 0.13916666667 
0.13958333333 0.13908333333 0.13883333333 0.13833333333 0.13833333333 0.13833333333 0.13758333333 0.13733333333 0.13716666667 
0.13708333333 0.137 0.13683333333 0.13691666667 0.137 0.13708333333 0.137 0.13725 0.13725 
0.13775 0.13775 0.13808333333 0.1385 0.139 0.13975 0.14008333333 0.14041666667 0.14075 
0.14166666667 0.14191666667 0.14275 0.14341666667 0.14375 0.14483333333 0.14616666667 0.14683333333 0.14766666667 
0.14891666667 0.14991666667 0.15091666667 0.15225 0.15283333333 0.15283333333 0.1555 0.1555 0.15833333333 
0.16041666667 0.16083333333 0.16333333333 0.16508333333 0.16583333333 0.1685 0.16983333333 0.17141666667 0.17141666667 
0.17633333333 0.17825 0.18033333333 0.18433333333 0.18675 0.18966666667 0.19241666667 0.19416666667 0.19816666667 
0.20116666667 0.20333333333 0.204 0.20341666667 0.20341666667 0.20341666667 0.19675 0.19316666667 0.19083333333 
0.18891666667 0.18741666667 0.18466666667 0.18358333333 0.18358333333 0.17941666667 0.17816666667 0.17558333333 0.17416666667 
0.1735 0.17158333333 0.17066666667 0.16933333333 0.16766666667 0.16666666667 0.16583333333 0.16483333333 0.1635 
0.1635 0.16175 0.16108333333 0.16041666667 0.15933333333 0.15883333333 0.158 0.15758333333 0.15758333333 
0.1565 0.1565 0.15558333333 0.15516666667 0.15483333333 0.15458333333 0.15416666667 0.154 0.15383333333 
0.15383333333 0.15358333333 0.1535 0.15341666667 0.15341666667 0.1535 0.15341666667 0.15325 0.15325 
0.15316666667 0.15341666667 0.15375 0.154 0.15416666667 0.15466666667 0.15491666667 0.15541666667 0.15583333333 
0.15616666667 0.15616666667 0.15741666667 0.15791666667 0.15875 0.15933333333 0.16025 0.161 0.162 
0.16283333333 0.16358333333 0.16483333333 0.1655 0.16716666667 0.16791666667 0.16908333333 0.17058333333 0.17166666667 
0.17366666667 0.17458333333 0.17616666667 0.17783333333 0.17941666667 0.18216666667 0.18316666667 0.18566666667 0.18783333333 
0.18958333333 0.19208333333 0.19466666667 0.1965 0.19933333333 0.20133333333 0.20333333333 0.20375 0.20208333333 
0.20066666667 0.197 0.19408333333 0.19116666667 0.18841666667 0.18575 0.18291666667 0.1805 0.17825 
0.176 0.17266666667 0.17116666667 0.16966666667 0.16775 0.16525 0.16408333333 0.16158333333 0.16033333333 
0.15866666667 0.15733333333 0.15608333333 0.155 0.15341666667 0.15191666667 0.15133333333 0.15133333333 0.14875 
0.14775 0.14775 0.146 0.14508333333 0.14441666667 0.14316666667 0.14275 0.14175 0.14141666667 
0.14041666667 0.13991666667 0.13941666667 0.139 0.13841666667 0.13825 0.13841666667 0.13833333333 0.13775 
0.13775 0.1375 0.13733333333 0.13733333333 0.137 0.13725 0.13691666667 0.137 0.13708333333 
0.13716666667 0.13716666667 0.13741666667 0.13725 0.138 0.13816666667 0.1385 0.1385 0.13916666667 
0.13958333333 0.13991666667 0.14008333333 0.14075 0.1415 0.14191666667 0.14283333333 0.14283333333 0.14375 
0.14458333333 0.14508333333 0.1465 0.147 0.14858333333 0.14916666667 0.14991666667 0.14991666667 0.15283333333 
0.15366666667 0.15458333333 0.15633333333 0.15741666667 0.15891666667 0.15816666667 0.15791666667 0.156 0.15133333333 
0.14941666667 0.14925 0.14958333333 0.15133333333 0.15425 0.15566666667 0.15591666667 0.15508333333 0.15091666667 
0.14916666667 0.14625 0.144 0.14075 0.13925 0.1365 0.135 0.13283333333 0.13116666667 
0.12933333333 0.12783333333 0.12608333333 0.12541666667 0.12358333333 0.1225 0.121 0.11958333333 0.11816666667 
0.11733333333 0.11641666667 0.11525 0.11391666667 0.113 0.11233333333 0.11141666667 0.11091666667 0.11 
0.10908333333 0.10816666667 0.10766666667 0.10691666667 0.10658333333 0.10608333333 0.10508333333 0.10491666667 0.10433333333 
0.10391666667 0.10366666667 0.10316666667 0.10275 0.10225 0.10225 0.10191666667 0.10141666667 0.10116666667 
0.10108333333 0.10083333333 0.10075 0.10075 0.1005 0.1005 0.1005 0.10041666667 0.10041666667 
0.10041666667 0.10033333333 0.10033333333 0.10058333333 0.10058333333 0.10066666667 0.10083333333 0.10108333333 0.10116666667 
0.1015 0.10191666667 0.10233333333 0.10258333333 0.10291666667 0.103 0.10391666667 0.10391666667 0.10466666667 
0.10525 0.10575 0.10575 0.10675 0.1075 0.10833333333 0.10891666667 0.10966666667 0.111 
0.11116666667 0.11258333333 0.113 0.11475 0.11508333333 0.11633333333 0.11725 0.11883333333 0.11991666667 
0.12075 0.12225 0.12341666667 0.12491666667 0.127 0.12816666667 0.12983333333 0.13133333333 0.13408333333 
0.13591666667 0.138 0.14033333333 0.14141666667 0.14141666667 0.14766666667 0.14966666667 0.15283333333 0.15458333333 
0.15458333333 0.15533333333 0.154 0.15075 0.14975 0.14875 0.14891666667 0.15258333333 0.15575 
0.15758333333 0.15833333333 0.15808333333 0.157 0.15558333333 0.15433333333 0.153 0.1515 0.15016666667 
0.15016666667 0.14825 0.14725 0.14683333333 0.14575 0.14575 0.14408333333 0.14333333333 0.14258333333 
0.14258333333 0.14116666667 0.1405 0.14008333333 0.14008333333 0.13975 0.13933333333 0.13891666667 0.13891666667 
0.13891666667 0.13775 0.13775 0.1375 0.137 0.137 0.13675 0.13683333333 0.13691666667 
0.13683333333 0.137 0.13708333333 0.13708333333 0.13691666667 0.1375 0.13766666667 0.13766666667 0.138 
0.13841666667 0.13891666667 0.13925 0.13958333333 0.13991666667 0.14075 0.1415 0.14233333333 0.14233333333 
0.14383333333 0.1445 0.14525 0.14575 0.14641666667 0.14741666667 0.14908333333 0.15033333333 0.1505 
0.15191666667 0.15291666667 0.154 0.15541666667 0.15675 0.15791666667 0.1595 0.161 0.161 
0.1645 0.16566666667 0.16758333333 0.16758333333 0.17216666667 0.17358333333 0.17641666667 0.17816666667 0.18 
0.18283333333 0.18533333333 0.18808333333 0.19083333333 0.19516666667 0.19725 0.2 0.20275 0.20333333333 
0.20233333333 0.20133333333 0.20133333333 0.19541666667 0.19266666667 0.19075 0.18825 0.187 0.18491666667 
0.18241666667 0.18125 0.1785 0.17733333333 0.17591666667 0.17466666667 0.17466666667 0.17133333333 0.16966666667 
0.16825 0.16716666667 0.16716666667 0.16541666667 0.164 0.16308333333 0.16241666667 0.16166666667 0.16033333333 
0.16033333333 0.15891666667 0.15816666667 0.15775 0.15683333333 0.15641666667 0.15616666667 0.15541666667 0.15516666667 
0.15466666667 0.15433333333 0.15408333333 0.15375 0.15358333333 0.15358333333 0.15325 0.15308333333 0.153 
0.153 0.153 0.153 0.153 0.15283333333 0.15275 0.153 0.15325 0.15325 
0.15341666667 0.15366666667 0.15408333333 0.15458333333 0.15483333333 0.1555 0.156 0.15633333333 0.15708333333 
0.15758333333 0.15841666667 0.15891666667 0.15958333333 0.16041666667 0.16141666667 0.16208333333 0.16316666667 0.16416666667 
0.16416666667 0.16608333333 0.16783333333 0.169 0.17033333333 0.17166666667 0.17291666667 0.17416666667 0.17616666667 
0.17616666667 0.17916666667 0.17916666667 0.18325 0.1855 0.18758333333 0.189 0.189 0.19325 
0.19716666667 0.19866666667 0.202 0.20283333333 0.20308333333 0.20275 0.19908333333 0.19691666667 0.19333333333 
0.19016666667 0.18808333333 0.18441666667 0.18233333333 0.18025 0.17733333333 0.17733333333 0.1725 0.17166666667 
0.1685 0.16708333333 0.16566666667 0.164 0.16233333333 0.16066666667 0.15916666667 0.15758333333 0.15608333333 
0.15483333333 0.15358333333 0.15241666667 0.15125 0.15016666667 0.149 0.14808333333 0.147 0.14608333333 
0.14525 0.1445 0.14358333333 0.14283333333 0.14216666667 0.1415 0.14075 0.14025 0.13966666667 
0.139 0.13875 0.13833333333 0.13875 0.13833333333 0.13775 0.13775 0.13741666667 0.13741666667 
0.13691666667 0.13708333333 0.13691666667 0.13716666667 0.13708333333 0.13691666667 0.13716666667 0.13725 0.13766666667 
0.13758333333 0.13766666667 0.13775 0.13841666667 0.13875 0.13875 0.13933333333 0.14008333333 0.14033333333 
0.14083333333 0.14133333333 0.142 0.14275 0.14375 0.14408333333 0.145 0.14541666667 0.14591666667 
0.147 0.14808333333 0.14908333333 0.15041666667 0.15141666667 0.15233333333 0.15325 0.15466666667 0.156 
0.1575 0.1585 0.159 0.15791666667 0.15525 0.15158333333 0.14883333333 0.14858333333 0.14975 
0.15233333333 0.15233333333 0.15558333333 0.15591666667 0.15458333333 0.15166666667 0.14858333333 0.14616666667 0.1435 
0.1435 0.1385 0.13583333333 0.13416666667 0.13258333333 0.13008333333 0.12833333333 0.12741666667 0.12583333333 
0.1245 0.12333333333 0.12175 0.12075 0.11966666667 0.118 0.117 0.11616666667 0.11483333333 
0.11375 0.11375 0.11208333333 0.11133333333 0.11041666667 0.10966666667 0.10966666667 0.108 0.10741666667 
0.10683333333 0.10633333333 0.10575 0.10508333333 0.10508333333 0.104 0.10366666667 0.10316666667 0.10266666667 
0.10241666667 0.10216666667 0.10191666667 0.1015 0.10133333333 0.10125 0.10091666667 0.10091666667 0.10058333333 
0.10041666667 0.1005 0.10025 0.10025 0.10016666667 0.10025 0.10008333333 0.10008333333 0.10016666667 
0.10041666667 0.1005 0.1005 0.10058333333 0.10083333333 0.10116666667 0.10133333333 0.10133333333 0.10216666667 
0.10233333333 0.10266666667 0.10308333333 0.10341666667 0.10391666667 0.1045 0.10516666667 0.10558333333 0.106 
0.10675 0.10725 0.108 0.10875 0.1095 0.11016666667 0.111 0.11175 0.11308333333 
0.11375 0.11525 0.11591666667 0.117 0.11875 0.12 0.12091666667 0.12225 0.12225 
0.12441666667 0.12616666667 0.12875 0.13016666667 0.13083333333 0.134 0.13525 0.13766666667 0.13975 
0.1415 0.14458333333 0.14741666667 0.14858333333 0.1515 0.15525 0.156 0.15575 0.15391666667 
0.15116666667 0.1495 0.14841666667 0.14866666667 0.1525 0.15625 0.15725 0.15808333333 0.15783333333 
0.15708333333 0.15508333333 0.15425 0.15258333333 0.15183333333 0.15058333333 0.14966666667 0.14866666667 0.14758333333 
0.14616666667 0.14591666667 0.14466666667 0.14383333333 0.14325 0.14258333333 0.14183333333 0.14116666667 0.14066666667 
0.14008333333 0.13966666667 0.13916666667 0.13925 0.139 0.1385 0.13825 0.13808333333 0.13783333333 
0.13725 0.13716666667 0.1375 0.13708333333 0.13691666667 0.13691666667 0.13675 0.137 0.137 
0.13716666667 0.13733333333 0.13733333333 0.13766666667 0.138 0.13816666667 0.13866666667 0.13883333333 0.13916666667 
0.13975 0.14 0.14058333333 0.14125 0.14191666667 0.14258333333 0.14333333333 0.14433333333 0.14458333333 
0.14458333333 0.1465 0.14725 0.14833333333 0.1495 0.15016666667 0.15141666667 0.15283333333 0.15391666667 
0.155 0.1565 0.1565 0.15941666667 0.16175 0.16316666667 0.16416666667 0.1665 0.16791666667 
0.16933333333 0.172 0.17375 0.17533333333 0.17891666667 0.17891666667 0.18316666667 0.18525 0.18525 
0.19066666667 0.19375 0.19675 0.20033333333 0.20033333333 0.20325 0.20283333333 0.20108333333 0.19841666667 
0.19591666667 0.19316666667 0.19008333333 0.18875 0.18666666667 0.18383333333 0.18258333333 0.18091666667 0.17908333333 
0.17683333333 0.17541666667 0.17416666667 0.17208333333 0.17083333333 0.16975 0.16825 0.16683333333 0.16616666667 
0.165 0.16408333333 0.16258333333 0.16216666667 0.16108333333 0.16041666667 0.15933333333 0.15883333333 0.15775 
0.15725 0.15683333333 0.15625 0.15558333333 0.15525 0.15475 0.15416666667 0.15391666667 0.15366666667 
0.15333333333 0.15325 0.15291666667 0.15283333333 0.15275 0.15275 0.15275 0.15275 0.15275 
0.15266666667 0.15258333333 0.15258333333 0.15266666667 0.153 0.15308333333 0.15316666667 0.15375 0.154 
0.15433333333 0.15475 0.15525 0.15525 0.15616666667 0.157 0.15758333333 0.15791666667 0.159 
0.15975 0.16016666667 0.16016666667 0.16183333333 0.16325 0.16433333333 0.16541666667 0.16591666667 0.1675 
0.16841666667 0.17016666667 0.17166666667 0.17233333333 0.17466666667 0.17608333333 0.17766666667 0.17875 0.18116666667 
0.18233333333 0.18508333333 0.18633333333 0.18875 0.19066666667 0.1935 0.196 0.19808333333 0.20066666667 
0.20066666667 0.20266666667 0.20208333333 0.19841666667 0.19625 0.19383333333 0.18966666667 0.18808333333 0.18458333333 
0.18291666667 0.18291666667 0.17741666667 0.1745 0.17325 0.17091666667 0.16933333333 0.1665 0.16491666667 
0.16308333333 0.16225 0.16 0.1585 0.1585 0.15625 0.15433333333 0.15433333333 0.152 
0.15075 0.14983333333 0.149 0.14758333333 0.14708333333 0.14575 0.14525 0.14525 0.14358333333 
0.14275 0.14191666667 0.14141666667 0.14075 0.14016666667 0.13941666667 0.13908333333 0.13858333333 0.13841666667 
0.13858333333 0.13808333333 0.13825 0.13775 0.13733333333 0.13733333333 0.13733333333 0.137 0.13716666667 
0.13691666667 0.13716666667 0.13716666667 0.13716666667 0.13725 0.1375 0.13758333333 0.13758333333 0.13758333333 
0.13825 0.13858333333 0.139 0.13925 0.13983333333 0.14033333333 0.14083333333 0.14141666667 0.14191666667 
0.1425 0.14325 0.14383333333 0.14466666667 0.1455 0.14641666667 0.14725 0.1485 0.14925 
0.15091666667 0.152 0.15316666667 0.1535 0.155 0.15641666667 0.15641666667 0.15875 0.15816666667 
0.15716666667 0.15375 0.15091666667 0.14925 0.14891666667 0.15066666667 0.15233333333 0.15416666667 0.1555 
0.156 0.1545 0.1545 0.14766666667 0.14575 0.14225 0.13958333333 0.13825 0.13825 
0.13383333333 0.13141666667 0.13025 0.12875 0.12666666667 0.12666666667 0.12416666667 0.12325 0.12325 
0.12025 0.11866666667 0.11866666667 0.11675 0.11533333333 0.11433333333 0.11375 0.11241666667 0.11141666667 
0.11141666667 0.11025 0.10925 0.1085 0.10791666667 0.10683333333 0.1065 0.10583333333 0.10558333333 
0.10558333333 0.10425 0.10366666667 0.10341666667 0.10316666667 0.10316666667 0.10233333333 0.10183333333 0.10158333333 
0.10133333333 0.10108333333 0.10083333333 0.10075 0.10058333333 0.10033333333 0.10025 0.10016666667 0.1 
0.1 0.10008333333 0.1 0.1 0.099916666667 0.1 0.10033333333 0.10033333333 0.1005 
0.10058333333 0.10058333333 0.10083333333 0.10133333333 0.10166666667 0.10183333333 0.10216666667 0.10258333333 0.103 
0.10316666667 0.10366666667 0.10416666667 0.10466666667 0.10541666667 0.10583333333 0.10633333333 0.10741666667 0.10775 
0.10875 0.10908333333 0.10983333333 0.111 0.11183333333 0.11266666667 0.11358333333 0.11491666667 0.11616666667 
0.11683333333 0.11808333333 0.11925 0.12025 0.122 0.12341666667 0.12458333333 0.126 0.12758333333 
0.12925 0.13075 0.13241666667 0.1345 0.13641666667 0.13841666667 0.13841666667 0.14383333333 0.14383333333 
0.14383333333 0.15091666667 0.15466666667 0.15575 0.15583333333 0.15433333333 0.15141666667 0.14975 0.1485 
0.15041666667 0.15041666667 0.15591666667 0.15733333333 0.15816666667 0.15791666667 0.15716666667 0.15533333333 0.154 
0.15291666667 0.152 0.1505 0.1495 0.14841666667 0.14716666667 0.14666666667 0.14666666667 0.14475 
0.14375 0.14333333333 0.14275 0.14175 0.14175 0.14066666667 0.14025 0.14025 0.13916666667 
0.13916666667 0.13916666667 0.13891666667 0.13816666667 0.13775 0.13766666667 0.1375 0.13725 0.13716666667 
0.13716666667 0.13708333333 0.13675 0.137 0.13691666667 0.13725 0.13725 0.1375 0.13741666667 
0.1375 0.13791666667 0.13791666667 0.13841666667 0.13883333333 0.13925 0.1395 0.14008333333 0.14083333333 
0.14133333333 0.14191666667 0.14308333333 0.14283333333 0.14283333333 0.14483333333 0.14616666667 0.14658333333 0.14733333333 
0.14883333333 0.14983333333 0.15058333333 0.15208333333 0.15341666667 0.1545 0.15516666667 0.15716666667 0.15775 
0.15991666667 0.16075 0.16075 0.16075 0.166 0.16766666667 0.17 0.17133333333 0.17408333333 
0.17541666667 0.17541666667 0.17991666667 0.18241666667 0.18241666667 0.18775 0.19066666667 0.19525 0.19691666667 
0.20025 0.20025 0.20283333333 0.20241666667 0.20066666667 0.19708333333 0.19433333333 0.192 0.192 
0.18808333333 0.18633333333 0.18341666667 0.18241666667 0.18025 0.17866666667 0.17866666667 0.17491666667 0.17341666667 
0.17241666667 0.17041666667 0.16958333333 0.16833333333 0.16683333333 0.1655 0.16491666667 0.16366666667 0.16275 
0.1615 0.1605 0.16016666667 0.15916666667 0.15858333333 0.15758333333 0.15758333333 0.15666666667 0.15591666667 
0.1555 0.15491666667 0.1545 0.15416666667 0.15366666667 0.15341666667 0.15308333333 0.15291666667 0.15275 
0.15258333333 0.1525 0.15241666667 0.15241666667 0.1525 0.1525 0.1525 0.1525 0.15241666667 
0.15241666667 0.15275 0.15283333333 0.15308333333 0.1535 0.15358333333 0.154 0.1545 0.155 
0.15558333333 0.15616666667 0.1565 0.15733333333 0.15791666667 0.15791666667 0.1595 0.16033333333 0.16125 
0.16208333333 0.16266666667 0.16266666667 0.16491666667 0.166 0.16708333333 0.16875 0.1695 0.17166666667 
0.17308333333 0.17383333333 0.17591666667 0.1775 0.17858333333 0.18041666667 0.18291666667 0.18508333333 0.18625 
0.18908333333 0.19058333333 0.19058333333 0.19616666667 0.19908333333 0.20025 0.20025 0.20241666667 0.20141666667 
0.20025 0.19566666667 0.19391666667 0.19391666667 0.18783333333 0.18466666667 0.18125 0.17891666667 0.17675 
0.17475 0.17325 0.17066666667 0.16841666667 0.167 0.16516666667 0.16375 0.16208333333 0.16041666667 
0.159 0.159 0.156 0.15483333333 0.15483333333 0.15175 0.15083333333 0.14966666667 0.14891666667 